Title                                                                   
SP        RCAM-B3LYP TD-FC                                            SVP                 
Number of atoms                            I               23
Info1-9                                    I   N=           9
          56          56           0           0           0         111
           1         218           1
Charge                                     I                0
Multiplicity                               I                1
Number of electrons                        I              128
Number of alpha electrons                  I               64
Number of beta electrons                   I               64
Number of basis functions                  I              262
Number of independent functions            I              262
Number of point charges in /Mol/           I                0
Number of translation vectors              I                0
Atomic numbers                             I   N=          23
           6           6           1           6           1           6
          16           6           6           1           6           1
           6          16           6           6           1           6
           1           6           1          16           1
Nuclear charges                            R   N=          23
  6.00000000E+00  6.00000000E+00  1.00000000E+00  6.00000000E+00  1.00000000E+00
  6.00000000E+00  1.60000000E+01  6.00000000E+00  6.00000000E+00  1.00000000E+00
  6.00000000E+00  1.00000000E+00  6.00000000E+00  1.60000000E+01  6.00000000E+00
  6.00000000E+00  1.00000000E+00  6.00000000E+00  1.00000000E+00  6.00000000E+00
  1.00000000E+00  1.60000000E+01  1.00000000E+00
Current cartesian coordinates              R   N=          69
 -3.77945225E+00  9.71718149E+00  2.77171932E-01 -3.77945225E+00  8.72885473E+00
  2.65985201E+00 -3.77945225E+00  9.87931810E+00  4.36856316E+00 -3.77945225E+00
  6.04032247E+00  2.66040759E+00 -3.77945225E+00  4.89350627E+00  4.37283772E+00
 -3.77945225E+00  5.01749120E+00  2.72921938E-01 -3.77945225E+00  7.39191129E+00
 -1.99197151E+00 -3.77945225E+00  2.36845044E+00 -4.60074480E-01 -3.77945225E+00
  1.33975346E+00 -2.84330069E+00 -3.77945225E+00  2.48111592E+00 -4.55901706E+00
 -3.77945225E+00 -1.33975346E+00 -2.84330069E+00 -3.77945225E+00 -2.48111592E+00
 -4.55901706E+00 -3.77945225E+00 -2.36845044E+00 -4.60074480E-01 -3.77945225E+00
  0.00000000E+00  1.81072059E+00 -3.77945225E+00 -5.01749120E+00  2.72921938E-01
 -3.77945225E+00 -6.04032247E+00  2.66040759E+00 -3.77945225E+00 -4.89350627E+00
  4.37283772E+00 -3.77945225E+00 -8.72885473E+00  2.65985201E+00 -3.77945225E+00
 -9.87931810E+00  4.36856316E+00 -3.77945225E+00 -9.71718149E+00  2.77171932E-01
 -3.77945225E+00 -1.16983439E+01 -2.75484142E-01 -3.77945225E+00 -7.39191129E+00
 -1.99197151E+00 -3.77945225E+00  1.16983439E+01 -2.75484142E-01
Force Field                                I                0
Int Atom Types                             I   N=          23
           0           0           0           0           0           0
           0           0           0           0           0           0
           0           0           0           0           0           0
           0           0           0           0           0
MM charges                                 R   N=          23
  0.00000000E+00  0.00000000E+00  0.00000000E+00  0.00000000E+00  0.00000000E+00
  0.00000000E+00  0.00000000E+00  0.00000000E+00  0.00000000E+00  0.00000000E+00
  0.00000000E+00  0.00000000E+00  0.00000000E+00  0.00000000E+00  0.00000000E+00
  0.00000000E+00  0.00000000E+00  0.00000000E+00  0.00000000E+00  0.00000000E+00
  0.00000000E+00  0.00000000E+00  0.00000000E+00
Integer atomic weights                     I   N=          23
          12          12           1          12           1          12
          32          12          12           1          12           1
          12          32          12          12           1          12
           1          12           1          32           1
Real atomic weights                        R   N=          23
  1.20000000E+01  1.20000000E+01  1.00782504E+00  1.20000000E+01  1.00782504E+00
  1.20000000E+01  3.19720718E+01  1.20000000E+01  1.20000000E+01  1.00782504E+00
  1.20000000E+01  1.00782504E+00  1.20000000E+01  3.19720718E+01  1.20000000E+01
  1.20000000E+01  1.00782504E+00  1.20000000E+01  1.00782504E+00  1.20000000E+01
  1.00782504E+00  3.19720718E+01  1.00782504E+00
Atom fragment info                         I   N=          23
           0           0           0           0           0           0
           0           0           0           0           0           0
           0           0           0           0           0           0
           0           0           0           0           0
Atom residue num                           I   N=          23
           0           0           0           0           0           0
           0           0           0           0           0           0
           0           0           0           0           0           0
           0           0           0           0           0
Nuclear spins                              I   N=          23
           0           0           1           0           1           0
           0           0           0           1           0           1
           0           0           0           0           1           0
           1           0           1           0           1
Nuclear ZEff                               R   N=          23
 -3.60000000E+00 -3.60000000E+00 -1.00000000E+00 -3.60000000E+00 -1.00000000E+00
 -3.60000000E+00 -1.36000000E+01 -3.60000000E+00 -3.60000000E+00 -1.00000000E+00
 -3.60000000E+00 -1.00000000E+00 -3.60000000E+00 -1.36000000E+01 -3.60000000E+00
 -3.60000000E+00 -1.00000000E+00 -3.60000000E+00 -1.00000000E+00 -3.60000000E+00
 -1.00000000E+00 -1.36000000E+01 -1.00000000E+00
Nuclear ZNuc                               R   N=          23
  6.00000000E+00  6.00000000E+00  1.00000000E+00  6.00000000E+00  1.00000000E+00
  6.00000000E+00  1.60000000E+01  6.00000000E+00  6.00000000E+00  1.00000000E+00
  6.00000000E+00  1.00000000E+00  6.00000000E+00  1.60000000E+01  6.00000000E+00
  6.00000000E+00  1.00000000E+00  6.00000000E+00  1.00000000E+00  6.00000000E+00
  1.00000000E+00  1.60000000E+01  1.00000000E+00
Nuclear QMom                               R   N=          23
  0.00000000E+00  0.00000000E+00  0.00000000E+00  0.00000000E+00  0.00000000E+00
  0.00000000E+00  0.00000000E+00  0.00000000E+00  0.00000000E+00  0.00000000E+00
  0.00000000E+00  0.00000000E+00  0.00000000E+00  0.00000000E+00  0.00000000E+00
  0.00000000E+00  0.00000000E+00  0.00000000E+00  0.00000000E+00  0.00000000E+00
  0.00000000E+00  0.00000000E+00  0.00000000E+00
Nuclear GFac                               R   N=          23
  0.00000000E+00  0.00000000E+00  2.79284600E+00  0.00000000E+00  2.79284600E+00
  0.00000000E+00  0.00000000E+00  0.00000000E+00  0.00000000E+00  2.79284600E+00
  0.00000000E+00  2.79284600E+00  0.00000000E+00  0.00000000E+00  0.00000000E+00
  0.00000000E+00  2.79284600E+00  0.00000000E+00  2.79284600E+00  0.00000000E+00
  2.79284600E+00  0.00000000E+00  2.79284600E+00
MicOpt                                     I   N=          23
          -1          -1          -1          -1          -1          -1
          -1          -1          -1          -1          -1          -1
          -1          -1          -1          -1          -1          -1
          -1          -1          -1          -1          -1
Number of contracted shells                I              120
Number of primitive shells                 I              238
Pure/Cartesian d shells                    I                0
Pure/Cartesian f shells                    I                0
Highest angular momentum                   I                2
Largest degree of contraction              I                5
Shell types                                I   N=         120
           0           0           0           1           1          -2
           0           0           0           1           1          -2
           0           0           1           0           0           0
           1           1          -2           0           0           1
           0           0           0           1           1          -2
           0           0           0           0           1           1
           1          -2           0           0           0           1
           1          -2           0           0           0           1
           1          -2           0           0           1           0
           0           0           1           1          -2           0
           0           1           0           0           0           1
           1          -2           0           0           0           0
           1           1           1          -2           0           0
           0           1           1          -2           0           0
           0           1           1          -2           0           0
           1           0           0           0           1           1
          -2           0           0           1           0           0
           0           1           1          -2           0           0
           1           0           0           0           0           1
           1           1          -2           0           0           1
Number of primitives per shell             I   N=         120
           5           1           1           3           1           1
           5           1           1           3           1           1
           3           1           1           5           1           1
           3           1           1           3           1           1
           5           1           1           3           1           1
           5           3           1           1           5           1
           1           1           5           1           1           3
           1           1           5           1           1           3
           1           1           3           1           1           5
           1           1           3           1           1           3
           1           1           5           1           1           3
           1           1           5           3           1           1
           5           1           1           1           5           1
           1           3           1           1           5           1
           1           3           1           1           3           1
           1           5           1           1           3           1
           1           3           1           1           5           1
           1           3           1           1           3           1
           1           5           3           1           1           5
           1           1           1           3           1           1
Shell to atom map                          I   N=         120
           1           1           1           1           1           1
           2           2           2           2           2           2
           3           3           3           4           4           4
           4           4           4           5           5           5
           6           6           6           6           6           6
           7           7           7           7           7           7
           7           7           8           8           8           8
           8           8           9           9           9           9
           9           9          10          10          10          11
          11          11          11          11          11          12
          12          12          13          13          13          13
          13          13          14          14          14          14
          14          14          14          14          15          15
          15          15          15          15          16          16
          16          16          16          16          17          17
          17          18          18          18          18          18
          18          19          19          19          20          20
          20          20          20          20          21          21
          21          22          22          22          22          22
          22          22          22          23          23          23
Primitive exponents                        R   N=         238
  1.23840169E+03  1.86290050E+02  4.22511764E+01  1.16765579E+01  3.59305065E+00
  4.02451470E-01  1.30901830E-01  9.46809706E+00  2.01035451E+00  5.47710050E-01
  1.52686140E-01  8.00000000E-01  1.23840169E+03  1.86290050E+02  4.22511764E+01
  1.16765579E+01  3.59305065E+00  4.02451470E-01  1.30901830E-01  9.46809706E+00
  2.01035451E+00  5.47710050E-01  1.52686140E-01  8.00000000E-01  1.30107010E+01
  1.96225720E+00  4.44537960E-01  1.21949620E-01  8.00000000E-01  1.23840169E+03
  1.86290050E+02  4.22511764E+01  1.16765579E+01  3.59305065E+00  4.02451470E-01
  1.30901830E-01  9.46809706E+00  2.01035451E+00  5.47710050E-01  1.52686140E-01
  8.00000000E-01  1.30107010E+01  1.96225720E+00  4.44537960E-01  1.21949620E-01
  8.00000000E-01  1.23840169E+03  1.86290050E+02  4.22511764E+01  1.16765579E+01
  3.59305065E+00  4.02451470E-01  1.30901830E-01  9.46809706E+00  2.01035451E+00
  5.47710050E-01  1.52686140E-01  8.00000000E-01  9.18493030E+03  1.38151055E+03
  3.13871476E+02  8.80538706E+01  2.70399149E+01  4.56487313E+01  4.96645223E+00
  2.01162420E+00  3.56610770E-01  1.35072210E-01  2.61982334E+02  6.13068947E+01
  1.91037299E+01  6.65677204E+00  2.39596352E+00  6.17761620E-01  1.69933770E-01
  5.50000000E-01  1.23840169E+03  1.86290050E+02  4.22511764E+01  1.16765579E+01
  3.59305065E+00  4.02451470E-01  1.30901830E-01  9.46809706E+00  2.01035451E+00
  5.47710050E-01  1.52686140E-01  8.00000000E-01  1.23840169E+03  1.86290050E+02
  4.22511764E+01  1.16765579E+01  3.59305065E+00  4.02451470E-01  1.30901830E-01
  9.46809706E+00  2.01035451E+00  5.47710050E-01  1.52686140E-01  8.00000000E-01
  1.30107010E+01  1.96225720E+00  4.44537960E-01  1.21949620E-01  8.00000000E-01
  1.23840169E+03  1.86290050E+02  4.22511764E+01  1.16765579E+01  3.59305065E+00
  4.02451470E-01  1.30901830E-01  9.46809706E+00  2.01035451E+00  5.47710050E-01
  1.52686140E-01  8.00000000E-01  1.30107010E+01  1.96225720E+00  4.44537960E-01
  1.21949620E-01  8.00000000E-01  1.23840169E+03  1.86290050E+02  4.22511764E+01
  1.16765579E+01  3.59305065E+00  4.02451470E-01  1.30901830E-01  9.46809706E+00
  2.01035451E+00  5.47710050E-01  1.52686140E-01  8.00000000E-01  9.18493030E+03
  1.38151055E+03  3.13871476E+02  8.80538706E+01  2.70399149E+01  4.56487313E+01
  4.96645223E+00  2.01162420E+00  3.56610770E-01  1.35072210E-01  2.61982334E+02
  6.13068947E+01  1.91037299E+01  6.65677204E+00  2.39596352E+00  6.17761620E-01
  1.69933770E-01  5.50000000E-01  1.23840169E+03  1.86290050E+02  4.22511764E+01
  1.16765579E+01  3.59305065E+00  4.02451470E-01  1.30901830E-01  9.46809706E+00
  2.01035451E+00  5.47710050E-01  1.52686140E-01  8.00000000E-01  1.23840169E+03
  1.86290050E+02  4.22511764E+01  1.16765579E+01  3.59305065E+00  4.02451470E-01
  1.30901830E-01  9.46809706E+00  2.01035451E+00  5.47710050E-01  1.52686140E-01
  8.00000000E-01  1.30107010E+01  1.96225720E+00  4.44537960E-01  1.21949620E-01
  8.00000000E-01  1.23840169E+03  1.86290050E+02  4.22511764E+01  1.16765579E+01
  3.59305065E+00  4.02451470E-01  1.30901830E-01  9.46809706E+00  2.01035451E+00
  5.47710050E-01  1.52686140E-01  8.00000000E-01  1.30107010E+01  1.96225720E+00
  4.44537960E-01  1.21949620E-01  8.00000000E-01  1.23840169E+03  1.86290050E+02
  4.22511764E+01  1.16765579E+01  3.59305065E+00  4.02451470E-01  1.30901830E-01
  9.46809706E+00  2.01035451E+00  5.47710050E-01  1.52686140E-01  8.00000000E-01
  1.30107010E+01  1.96225720E+00  4.44537960E-01  1.21949620E-01  8.00000000E-01
  9.18493030E+03  1.38151055E+03  3.13871476E+02  8.80538706E+01  2.70399149E+01
  4.56487313E+01  4.96645223E+00  2.01162420E+00  3.56610770E-01  1.35072210E-01
  2.61982334E+02  6.13068947E+01  1.91037299E+01  6.65677204E+00  2.39596352E+00
  6.17761620E-01  1.69933770E-01  5.50000000E-01  1.30107010E+01  1.96225720E+00
  4.44537960E-01  1.21949620E-01  8.00000000E-01
Contraction coefficients                   R   N=         238
  5.51736180E-03  4.10888293E-02  1.82253822E-01  4.68284597E-01  4.45758170E-01
  1.00000000E+00  1.00000000E+00  5.68883296E-02  3.12940593E-01  7.60650166E-01
  1.00000000E+00  1.00000000E+00  5.51736180E-03  4.10888293E-02  1.82253822E-01
  4.68284597E-01  4.45758170E-01  1.00000000E+00  1.00000000E+00  5.68883296E-02
  3.12940593E-01  7.60650166E-01  1.00000000E+00  1.00000000E+00  3.34854882E-02
  2.34721871E-01  8.13770284E-01  1.00000000E+00  1.00000000E+00  5.51736180E-03
  4.10888293E-02  1.82253822E-01  4.68284597E-01  4.45758170E-01  1.00000000E+00
  1.00000000E+00  5.68883296E-02  3.12940593E-01  7.60650166E-01  1.00000000E+00
  1.00000000E+00  3.34854882E-02  2.34721871E-01  8.13770284E-01  1.00000000E+00
  1.00000000E+00  5.51736180E-03  4.10888293E-02  1.82253822E-01  4.68284597E-01
  4.45758170E-01  1.00000000E+00  1.00000000E+00  5.68883296E-02  3.12940593E-01
  7.60650166E-01  1.00000000E+00  1.00000000E+00 -5.47294956E-03 -4.09544019E-02
 -1.84758297E-01 -4.75672800E-01 -4.34951536E-01 -9.19040499E-02  5.56987774E-01
  5.11154682E-01  1.00000000E+00  1.00000000E+00 -9.18305176E-03 -6.59022276E-02
 -2.45877848E-01 -4.82314709E-01 -3.89563143E-01  1.00000000E+00  1.00000000E+00
  1.00000000E+00  5.51736180E-03  4.10888293E-02  1.82253822E-01  4.68284597E-01
  4.45758170E-01  1.00000000E+00  1.00000000E+00  5.68883296E-02  3.12940593E-01
  7.60650166E-01  1.00000000E+00  1.00000000E+00  5.51736180E-03  4.10888293E-02
  1.82253822E-01  4.68284597E-01  4.45758170E-01  1.00000000E+00  1.00000000E+00
  5.68883296E-02  3.12940593E-01  7.60650166E-01  1.00000000E+00  1.00000000E+00
  3.34854882E-02  2.34721871E-01  8.13770284E-01  1.00000000E+00  1.00000000E+00
  5.51736180E-03  4.10888293E-02  1.82253822E-01  4.68284597E-01  4.45758170E-01
  1.00000000E+00  1.00000000E+00  5.68883296E-02  3.12940593E-01  7.60650166E-01
  1.00000000E+00  1.00000000E+00  3.34854882E-02  2.34721871E-01  8.13770284E-01
  1.00000000E+00  1.00000000E+00  5.51736180E-03  4.10888293E-02  1.82253822E-01
  4.68284597E-01  4.45758170E-01  1.00000000E+00  1.00000000E+00  5.68883296E-02
  3.12940593E-01  7.60650166E-01  1.00000000E+00  1.00000000E+00 -5.47294956E-03
 -4.09544019E-02 -1.84758297E-01 -4.75672800E-01 -4.34951536E-01 -9.19040499E-02
  5.56987774E-01  5.11154682E-01  1.00000000E+00  1.00000000E+00 -9.18305176E-03
 -6.59022276E-02 -2.45877848E-01 -4.82314709E-01 -3.89563143E-01  1.00000000E+00
  1.00000000E+00  1.00000000E+00  5.51736180E-03  4.10888293E-02  1.82253822E-01
  4.68284597E-01  4.45758170E-01  1.00000000E+00  1.00000000E+00  5.68883296E-02
  3.12940593E-01  7.60650166E-01  1.00000000E+00  1.00000000E+00  5.51736180E-03
  4.10888293E-02  1.82253822E-01  4.68284597E-01  4.45758170E-01  1.00000000E+00
  1.00000000E+00  5.68883296E-02  3.12940593E-01  7.60650166E-01  1.00000000E+00
  1.00000000E+00  3.34854882E-02  2.34721871E-01  8.13770284E-01  1.00000000E+00
  1.00000000E+00  5.51736180E-03  4.10888293E-02  1.82253822E-01  4.68284597E-01
  4.45758170E-01  1.00000000E+00  1.00000000E+00  5.68883296E-02  3.12940593E-01
  7.60650166E-01  1.00000000E+00  1.00000000E+00  3.34854882E-02  2.34721871E-01
  8.13770284E-01  1.00000000E+00  1.00000000E+00  5.51736180E-03  4.10888293E-02
  1.82253822E-01  4.68284597E-01  4.45758170E-01  1.00000000E+00  1.00000000E+00
  5.68883296E-02  3.12940593E-01  7.60650166E-01  1.00000000E+00  1.00000000E+00
  3.34854882E-02  2.34721871E-01  8.13770284E-01  1.00000000E+00  1.00000000E+00
 -5.47294956E-03 -4.09544019E-02 -1.84758297E-01 -4.75672800E-01 -4.34951536E-01
 -9.19040499E-02  5.56987774E-01  5.11154682E-01  1.00000000E+00  1.00000000E+00
 -9.18305176E-03 -6.59022276E-02 -2.45877848E-01 -4.82314709E-01 -3.89563143E-01
  1.00000000E+00  1.00000000E+00  1.00000000E+00  3.34854882E-02  2.34721871E-01
  8.13770284E-01  1.00000000E+00  1.00000000E+00
Coordinates of each shell                  R   N=         360
 -3.77945225E+00  9.71718149E+00  2.77171932E-01 -3.77945225E+00  9.71718149E+00
  2.77171932E-01 -3.77945225E+00  9.71718149E+00  2.77171932E-01 -3.77945225E+00
  9.71718149E+00  2.77171932E-01 -3.77945225E+00  9.71718149E+00  2.77171932E-01
 -3.77945225E+00  9.71718149E+00  2.77171932E-01 -3.77945225E+00  8.72885473E+00
  2.65985201E+00 -3.77945225E+00  8.72885473E+00  2.65985201E+00 -3.77945225E+00
  8.72885473E+00  2.65985201E+00 -3.77945225E+00  8.72885473E+00  2.65985201E+00
 -3.77945225E+00  8.72885473E+00  2.65985201E+00 -3.77945225E+00  8.72885473E+00
  2.65985201E+00 -3.77945225E+00  9.87931810E+00  4.36856316E+00 -3.77945225E+00
  9.87931810E+00  4.36856316E+00 -3.77945225E+00  9.87931810E+00  4.36856316E+00
 -3.77945225E+00  6.04032247E+00  2.66040759E+00 -3.77945225E+00  6.04032247E+00
  2.66040759E+00 -3.77945225E+00  6.04032247E+00  2.66040759E+00 -3.77945225E+00
  6.04032247E+00  2.66040759E+00 -3.77945225E+00  6.04032247E+00  2.66040759E+00
 -3.77945225E+00  6.04032247E+00  2.66040759E+00 -3.77945225E+00  4.89350627E+00
  4.37283772E+00 -3.77945225E+00  4.89350627E+00  4.37283772E+00 -3.77945225E+00
  4.89350627E+00  4.37283772E+00 -3.77945225E+00  5.01749120E+00  2.72921938E-01
 -3.77945225E+00  5.01749120E+00  2.72921938E-01 -3.77945225E+00  5.01749120E+00
  2.72921938E-01 -3.77945225E+00  5.01749120E+00  2.72921938E-01 -3.77945225E+00
  5.01749120E+00  2.72921938E-01 -3.77945225E+00  5.01749120E+00  2.72921938E-01
 -3.77945225E+00  7.39191129E+00 -1.99197151E+00 -3.77945225E+00  7.39191129E+00
 -1.99197151E+00 -3.77945225E+00  7.39191129E+00 -1.99197151E+00 -3.77945225E+00
  7.39191129E+00 -1.99197151E+00 -3.77945225E+00  7.39191129E+00 -1.99197151E+00
 -3.77945225E+00  7.39191129E+00 -1.99197151E+00 -3.77945225E+00  7.39191129E+00
 -1.99197151E+00 -3.77945225E+00  7.39191129E+00 -1.99197151E+00 -3.77945225E+00
  2.36845044E+00 -4.60074480E-01 -3.77945225E+00  2.36845044E+00 -4.60074480E-01
 -3.77945225E+00  2.36845044E+00 -4.60074480E-01 -3.77945225E+00  2.36845044E+00
 -4.60074480E-01 -3.77945225E+00  2.36845044E+00 -4.60074480E-01 -3.77945225E+00
  2.36845044E+00 -4.60074480E-01 -3.77945225E+00  1.33975346E+00 -2.84330069E+00
 -3.77945225E+00  1.33975346E+00 -2.84330069E+00 -3.77945225E+00  1.33975346E+00
 -2.84330069E+00 -3.77945225E+00  1.33975346E+00 -2.84330069E+00 -3.77945225E+00
  1.33975346E+00 -2.84330069E+00 -3.77945225E+00  1.33975346E+00 -2.84330069E+00
 -3.77945225E+00  2.48111592E+00 -4.55901706E+00 -3.77945225E+00  2.48111592E+00
 -4.55901706E+00 -3.77945225E+00  2.48111592E+00 -4.55901706E+00 -3.77945225E+00
 -1.33975346E+00 -2.84330069E+00 -3.77945225E+00 -1.33975346E+00 -2.84330069E+00
 -3.77945225E+00 -1.33975346E+00 -2.84330069E+00 -3.77945225E+00 -1.33975346E+00
 -2.84330069E+00 -3.77945225E+00 -1.33975346E+00 -2.84330069E+00 -3.77945225E+00
 -1.33975346E+00 -2.84330069E+00 -3.77945225E+00 -2.48111592E+00 -4.55901706E+00
 -3.77945225E+00 -2.48111592E+00 -4.55901706E+00 -3.77945225E+00 -2.48111592E+00
 -4.55901706E+00 -3.77945225E+00 -2.36845044E+00 -4.60074480E-01 -3.77945225E+00
 -2.36845044E+00 -4.60074480E-01 -3.77945225E+00 -2.36845044E+00 -4.60074480E-01
 -3.77945225E+00 -2.36845044E+00 -4.60074480E-01 -3.77945225E+00 -2.36845044E+00
 -4.60074480E-01 -3.77945225E+00 -2.36845044E+00 -4.60074480E-01 -3.77945225E+00
  0.00000000E+00  1.81072059E+00 -3.77945225E+00  0.00000000E+00  1.81072059E+00
 -3.77945225E+00  0.00000000E+00  1.81072059E+00 -3.77945225E+00  0.00000000E+00
  1.81072059E+00 -3.77945225E+00  0.00000000E+00  1.81072059E+00 -3.77945225E+00
  0.00000000E+00  1.81072059E+00 -3.77945225E+00  0.00000000E+00  1.81072059E+00
 -3.77945225E+00  0.00000000E+00  1.81072059E+00 -3.77945225E+00 -5.01749120E+00
  2.72921938E-01 -3.77945225E+00 -5.01749120E+00  2.72921938E-01 -3.77945225E+00
 -5.01749120E+00  2.72921938E-01 -3.77945225E+00 -5.01749120E+00  2.72921938E-01
 -3.77945225E+00 -5.01749120E+00  2.72921938E-01 -3.77945225E+00 -5.01749120E+00
  2.72921938E-01 -3.77945225E+00 -6.04032247E+00  2.66040759E+00 -3.77945225E+00
 -6.04032247E+00  2.66040759E+00 -3.77945225E+00 -6.04032247E+00  2.66040759E+00
 -3.77945225E+00 -6.04032247E+00  2.66040759E+00 -3.77945225E+00 -6.04032247E+00
  2.66040759E+00 -3.77945225E+00 -6.04032247E+00  2.66040759E+00 -3.77945225E+00
 -4.89350627E+00  4.37283772E+00 -3.77945225E+00 -4.89350627E+00  4.37283772E+00
 -3.77945225E+00 -4.89350627E+00  4.37283772E+00 -3.77945225E+00 -8.72885473E+00
  2.65985201E+00 -3.77945225E+00 -8.72885473E+00  2.65985201E+00 -3.77945225E+00
 -8.72885473E+00  2.65985201E+00 -3.77945225E+00 -8.72885473E+00  2.65985201E+00
 -3.77945225E+00 -8.72885473E+00  2.65985201E+00 -3.77945225E+00 -8.72885473E+00
  2.65985201E+00 -3.77945225E+00 -9.87931810E+00  4.36856316E+00 -3.77945225E+00
 -9.87931810E+00  4.36856316E+00 -3.77945225E+00 -9.87931810E+00  4.36856316E+00
 -3.77945225E+00 -9.71718149E+00  2.77171932E-01 -3.77945225E+00 -9.71718149E+00
  2.77171932E-01 -3.77945225E+00 -9.71718149E+00  2.77171932E-01 -3.77945225E+00
 -9.71718149E+00  2.77171932E-01 -3.77945225E+00 -9.71718149E+00  2.77171932E-01
 -3.77945225E+00 -9.71718149E+00  2.77171932E-01 -3.77945225E+00 -1.16983439E+01
 -2.75484142E-01 -3.77945225E+00 -1.16983439E+01 -2.75484142E-01 -3.77945225E+00
 -1.16983439E+01 -2.75484142E-01 -3.77945225E+00 -7.39191129E+00 -1.99197151E+00
 -3.77945225E+00 -7.39191129E+00 -1.99197151E+00 -3.77945225E+00 -7.39191129E+00
 -1.99197151E+00 -3.77945225E+00 -7.39191129E+00 -1.99197151E+00 -3.77945225E+00
 -7.39191129E+00 -1.99197151E+00 -3.77945225E+00 -7.39191129E+00 -1.99197151E+00
 -3.77945225E+00 -7.39191129E+00 -1.99197151E+00 -3.77945225E+00 -7.39191129E+00
 -1.99197151E+00 -3.77945225E+00  1.16983439E+01 -2.75484142E-01 -3.77945225E+00
  1.16983439E+01 -2.75484142E-01 -3.77945225E+00  1.16983439E+01 -2.75484142E-01
Constraint Structure                       R   N=          69
 -3.77945225E+00  9.71718149E+00  2.77171932E-01 -3.77945225E+00  8.72885473E+00
  2.65985201E+00 -3.77945225E+00  9.87931810E+00  4.36856316E+00 -3.77945225E+00
  6.04032247E+00  2.66040759E+00 -3.77945225E+00  4.89350627E+00  4.37283772E+00
 -3.77945225E+00  5.01749120E+00  2.72921938E-01 -3.77945225E+00  7.39191129E+00
 -1.99197151E+00 -3.77945225E+00  2.36845044E+00 -4.60074480E-01 -3.77945225E+00
  1.33975346E+00 -2.84330069E+00 -3.77945225E+00  2.48111592E+00 -4.55901706E+00
 -3.77945225E+00 -1.33975346E+00 -2.84330069E+00 -3.77945225E+00 -2.48111592E+00
 -4.55901706E+00 -3.77945225E+00 -2.36845044E+00 -4.60074480E-01 -3.77945225E+00
  0.00000000E+00  1.81072059E+00 -3.77945225E+00 -5.01749120E+00  2.72921938E-01
 -3.77945225E+00 -6.04032247E+00  2.66040759E+00 -3.77945225E+00 -4.89350627E+00
  4.37283772E+00 -3.77945225E+00 -8.72885473E+00  2.65985201E+00 -3.77945225E+00
 -9.87931810E+00  4.36856316E+00 -3.77945225E+00 -9.71718149E+00  2.77171932E-01
 -3.77945225E+00 -1.16983439E+01 -2.75484142E-01 -3.77945225E+00 -7.39191129E+00
 -1.99197151E+00 -3.77945225E+00  1.16983439E+01 -2.75484142E-01
Num ILSW                                   I              100
ILSW                                       I   N=         100
           0           0           0           0           2           0
           0           0           0           0       20419          -1
           0           0           0           0           0           0
           0           0           0           0           0           0
           1           1           0           0           0           0
           0           0      100000           0          -1           0
           0           0           0           0           0           0
           0           0           0           1           0           0
           0           0           1           0           0           0
           0           0           4          41           0           0
           0           0          40           0           0           0
           0           0           0           0           0           0
           0           0           0           0           0           0
           0           0           0           0           0           0
           0           0           0           0           0           0
           0           0           0           0           0           0
           0           0           0           0
Num RLSW                                   I               41
RLSW                                       R   N=          41
  1.00000000E+00  1.00000000E+00  1.00000000E+00  8.10000000E-01  1.00000000E+00
  0.00000000E+00  3.30000000E-01  1.90000000E-01  0.00000000E+00  4.60000000E-01
  0.00000000E+00  3.30000000E-01  1.90000000E-01  0.00000000E+00  4.60000000E-01
  0.00000000E+00  0.00000000E+00  1.00000000E+00  0.00000000E+00  0.00000000E+00
  0.00000000E+00  0.00000000E+00  1.00000000E+00  0.00000000E+00  0.00000000E+00
  0.00000000E+00  0.00000000E+00  1.00000000E+00  0.00000000E+00  0.00000000E+00
  0.00000000E+00  0.00000000E+00  1.00000000E+00  0.00000000E+00  0.00000000E+00
  0.00000000E+00  0.00000000E+00  0.00000000E+00  1.00000000E+00  1.00000000E+00
  0.00000000E+00
MxBond                                     I                3
NBond                                      I   N=          23
           3           3           1           3           1           3
           2           3           3           1           3           1
           3           2           3           3           1           3