 Entering Gaussian System, Link 0=g09
 Initial command:
 /cm/shared/apps/gaussian/g09D01/g09/l1.exe "/local/dpadula/gaurun27452/Gau-29321.inp" -scrdir="/local/dpadula/gaurun27452"
 Entering Link 1 = /cm/shared/apps/gaussian/g09D01/g09/l1.exe PID=     29322.
  
 Copyright (c) 1988,1990,1992,1993,1995,1998,2003,2009,2013,
            Gaussian, Inc.  All Rights Reserved.
  
 This is part of the Gaussian(R) 09 program.  It is based on
 the Gaussian(R) 03 system (copyright 2003, Gaussian, Inc.),
 the Gaussian(R) 98 system (copyright 1998, Gaussian, Inc.),
 the Gaussian(R) 94 system (copyright 1995, Gaussian, Inc.),
 the Gaussian 92(TM) system (copyright 1992, Gaussian, Inc.),
 the Gaussian 90(TM) system (copyright 1990, Gaussian, Inc.),
 the Gaussian 88(TM) system (copyright 1988, Gaussian, Inc.),
 the Gaussian 86(TM) system (copyright 1986, Carnegie Mellon
 University), and the Gaussian 82(TM) system (copyright 1983,
 Carnegie Mellon University). Gaussian is a federally registered
 trademark of Gaussian, Inc.
  
 This software contains proprietary and confidential information,
 including trade secrets, belonging to Gaussian, Inc.
  
 This software is provided under written license and may be
 used, copied, transmitted, or stored only in accord with that
 written license.
  
 The following legend is applicable only to US Government
 contracts under FAR:
  
                    RESTRICTED RIGHTS LEGEND
  
 Use, reproduction and disclosure by the US Government is
 subject to restrictions as set forth in subparagraphs (a)
 and (c) of the Commercial Computer Software - Restricted
 Rights clause in FAR 52.227-19.
  
 Gaussian, Inc.
 340 Quinnipiac St., Bldg. 40, Wallingford CT 06492
  
  
 ---------------------------------------------------------------
 Warning -- This program may not be used in any manner that
 competes with the business of Gaussian, Inc. or will provide
 assistance to any competitor of Gaussian, Inc.  The licensee
 of this program is prohibited from giving any competitor of
 Gaussian, Inc. access to this program.  By using this program,
 the user acknowledges that Gaussian, Inc. is engaged in the
 business of creating and licensing software in the field of
 computational chemistry and represents and warrants to the
 licensee that it is not a competitor of Gaussian, Inc. and that
 it will not use this program in any manner prohibited above.
 ---------------------------------------------------------------
  

 Cite this work as:
 Gaussian 09, Revision D.01,
 M. J. Frisch, G. W. Trucks, H. B. Schlegel, G. E. Scuseria, 
 M. A. Robb, J. R. Cheeseman, G. Scalmani, V. Barone, B. Mennucci, 
 G. A. Petersson, H. Nakatsuji, M. Caricato, X. Li, H. P. Hratchian, 
 A. F. Izmaylov, J. Bloino, G. Zheng, J. L. Sonnenberg, M. Hada, 
 M. Ehara, K. Toyota, R. Fukuda, J. Hasegawa, M. Ishida, T. Nakajima, 
 Y. Honda, O. Kitao, H. Nakai, T. Vreven, J. A. Montgomery, Jr., 
 J. E. Peralta, F. Ogliaro, M. Bearpark, J. J. Heyd, E. Brothers, 
 K. N. Kudin, V. N. Staroverov, T. Keith, R. Kobayashi, J. Normand, 
 K. Raghavachari, A. Rendell, J. C. Burant, S. S. Iyengar, J. Tomasi, 
 M. Cossi, N. Rega, J. M. Millam, M. Klene, J. E. Knox, J. B. Cross, 
 V. Bakken, C. Adamo, J. Jaramillo, R. Gomperts, R. E. Stratmann, 
 O. Yazyev, A. J. Austin, R. Cammi, C. Pomelli, J. W. Ochterski, 
 R. L. Martin, K. Morokuma, V. G. Zakrzewski, G. A. Voth, 
 P. Salvador, J. J. Dannenberg, S. Dapprich, A. D. Daniels, 
 O. Farkas, J. B. Foresman, J. V. Ortiz, J. Cioslowski, 
 and D. J. Fox, Gaussian, Inc., Wallingford CT, 2013.
 
 ******************************************
 Gaussian 09:  ES64L-G09RevD.01 24-Apr-2013
                 1-Mar-2016 
 ******************************************
 %Mem=2500MW
 %NProcShared=12
 Will use up to   12 processors via shared memory.
 %Chk=0001.chk
 ----------------------------------------------------------------------
 #p td=(nstates=1) cam-b3lyp cc-pVTZ nosymm density(transition=1) IOp(9
 /40=5)
 ----------------------------------------------------------------------
 1/38=1/1;
 2/12=2,15=1,17=6,18=5,40=1/2;
 3/5=16,6=1,11=9,16=1,25=1,30=1,74=-40/1,2,8,3;
 4//1;
 5/5=2,38=5/2;
 8/6=1,10=1,108=1/1;
 9/40=5,41=1,42=1,70=2/14;
 6/7=2,8=2,9=2,10=2,29=1/1;
 99/5=1,9=1/99;
 Leave Link    1 at Tue Mar  1 10:16:51 2016, MaxMem=  2621440000 cpu:         0.4
 (Enter /cm/shared/apps/gaussian/g09D01/g09/l101.exe)
 ------------------------
 bodipy_monomer_camccpvtz
 ------------------------
 Symbolic Z-matrix:
 Charge =  0 Multiplicity = 1
 C                    -0.33749  -1.44762   0.65294 
 C                     0.0131   -0.62922   1.75701 
 C                    -1.41588  -2.22384   1.04882 
 H                    -1.94538  -2.9615    0.46672 
 C                    -1.7047   -1.86777   2.38306 
 H                    -2.47399  -2.25092   3.03697 
 N                    -0.85711  -0.92101   2.80514 
 C                     1.00994   0.32651   1.90988 
 H                     1.6731    0.53372   1.07813 
 C                     1.83112   2.37547   4.7835 
 H                     2.33821   3.10613   5.3937 
 C                     0.73378   1.58629   5.18779 
 H                     0.22314   1.56951   6.1392 
 C                     2.11376   2.02452   3.47235 
 H                     2.89014   2.42202   2.83596 
 C                     1.18022   1.02398   3.09943 
 N                     0.34603   0.78321   4.18898 
 B                    -0.83439  -0.24977   4.22306 
 F                    -2.03808   0.40981   4.45729 
 F                    -0.59778  -1.21152   5.20175 
 H                     0.15382  -1.44762  -0.2976 
 
 NAtoms=     21 NQM=       21 NQMF=       0 NMMI=      0 NMMIF=      0
                NMic=       0 NMicF=      0.
                    Isotopes and Nuclear Properties:
 (Nuclear quadrupole moments (NQMom) in fm**2, nuclear magnetic moments (NMagM)
  in nuclear magnetons)

  Atom         1           2           3           4           5           6           7           8           9          10
 IAtWgt=          12          12          12           1          12           1          14          12           1          12
 AtmWgt=  12.0000000  12.0000000  12.0000000   1.0078250  12.0000000   1.0078250  14.0030740  12.0000000   1.0078250  12.0000000
 NucSpn=           0           0           0           1           0           1           2           0           1           0
 AtZEff=   0.0000000   0.0000000   0.0000000   0.0000000   0.0000000   0.0000000   0.0000000   0.0000000   0.0000000   0.0000000
 NQMom=    0.0000000   0.0000000   0.0000000   0.0000000   0.0000000   0.0000000   2.0440000   0.0000000   0.0000000   0.0000000
 NMagM=    0.0000000   0.0000000   0.0000000   2.7928460   0.0000000   2.7928460   0.4037610   0.0000000   2.7928460   0.0000000
 AtZNuc=   6.0000000   6.0000000   6.0000000   1.0000000   6.0000000   1.0000000   7.0000000   6.0000000   1.0000000   6.0000000

  Atom        11          12          13          14          15          16          17          18          19          20
 IAtWgt=           1          12           1          12           1          12          14          11          19          19
 AtmWgt=   1.0078250  12.0000000   1.0078250  12.0000000   1.0078250  12.0000000  14.0030740  11.0093053  18.9984033  18.9984033
 NucSpn=           1           0           1           0           1           0           2           3           1           1
 AtZEff=   0.0000000   0.0000000   0.0000000   0.0000000   0.0000000   0.0000000   0.0000000   0.0000000   0.0000000   0.0000000
 NQMom=    0.0000000   0.0000000   0.0000000   0.0000000   0.0000000   0.0000000   2.0440000   4.0590000   0.0000000   0.0000000
 NMagM=    2.7928460   0.0000000   2.7928460   0.0000000   2.7928460   0.0000000   0.4037610   2.6886370   2.6288670   2.6288670
 AtZNuc=   1.0000000   6.0000000   1.0000000   6.0000000   1.0000000   6.0000000   7.0000000   5.0000000   9.0000000   9.0000000

  Atom        21
 IAtWgt=           1
 AtmWgt=   1.0078250
 NucSpn=           1
 AtZEff=   0.0000000
 NQMom=    0.0000000
 NMagM=    2.7928460
 AtZNuc=   1.0000000
 Leave Link  101 at Tue Mar  1 10:16:51 2016, MaxMem=  2621440000 cpu:         0.7
 (Enter /cm/shared/apps/gaussian/g09D01/g09/l202.exe)
                          Input orientation:                          
 ---------------------------------------------------------------------
 Center     Atomic      Atomic             Coordinates (Angstroms)
 Number     Number       Type             X           Y           Z
 ---------------------------------------------------------------------
      1          6           0       -0.337486   -1.447618    0.652938
      2          6           0        0.013100   -0.629224    1.757009
      3          6           0       -1.415879   -2.223837    1.048815
      4          1           0       -1.945379   -2.961496    0.466720
      5          6           0       -1.704700   -1.867773    2.383059
      6          1           0       -2.473991   -2.250922    3.036967
      7          7           0       -0.857109   -0.921012    2.805136
      8          6           0        1.009938    0.326510    1.909877
      9          1           0        1.673102    0.533723    1.078128
     10          6           0        1.831115    2.375471    4.783502
     11          1           0        2.338211    3.106130    5.393696
     12          6           0        0.733780    1.586288    5.187793
     13          1           0        0.223137    1.569509    6.139197
     14          6           0        2.113756    2.024521    3.472351
     15          1           0        2.890144    2.422018    2.835961
     16          6           0        1.180218    1.023978    3.099426
     17          7           0        0.346028    0.783209    4.188981
     18          5           0       -0.834389   -0.249769    4.223058
     19          9           0       -2.038080    0.409805    4.457293
     20          9           0       -0.597777   -1.211517    5.201747
     21          1           0        0.153820   -1.447618   -0.297598
 ---------------------------------------------------------------------
                    Distance matrix (angstroms):
                    1          2          3          4          5
     1  C    0.000000
     2  C    1.418327   0.000000
     3  C    1.386422   2.255285   0.000000
     4  H    2.216263   3.307564   1.078585   0.000000
     5  C    2.244799   2.208343   1.410817   2.219575   0.000000
     6  H    3.300537   3.233236   2.252350   2.718550   1.079910
     7  N    2.275802   1.393188   2.257042   3.288783   1.338998
     8  C    2.557925   1.389418   3.623574   4.650547   3.522505
     9  H    2.854638   2.137506   4.140869   5.067916   4.345063
    10  C    6.031616   4.636057   6.756070   7.834521   6.022394
    11  H    7.097236   5.708283   7.834521   8.912930   7.081580
    12  C    5.560316   4.147066   6.022394   7.081580   5.073781
    13  H    6.286206   4.907353   6.556511   7.576903   5.444266
    14  C    5.100336   3.794406   6.031616   7.097236   5.560316
    15  H    5.491563   4.330312   6.581770   7.614316   6.302382
    16  C    3.794406   2.428441   4.636057   5.708283   4.147066
    17  N    4.236435   2.832013   4.691192   5.755744   3.807170
    18  B    3.798356   2.635075   3.782974   4.764225   2.600187
    19  F    4.562363   3.546612   4.352117   5.224839   3.098540
    20  F    4.562363   3.546612   4.352117   5.224839   3.098540
    21  H    1.070000   2.216073   2.208914   2.698638   3.288852
                    6          7          8          9         10
     6  H    0.000000
     7  N    2.106350   0.000000
     8  C    4.477862   2.417368   0.000000
     9  H    5.365601   3.391280   1.083757   0.000000
    10  C    6.556511   4.691192   3.623574   4.140869   0.000000
    11  H    7.576903   5.755744   4.650547   5.067916   1.078585
    12  C    5.444266   3.807170   3.522505   4.345063   1.410817
    13  H    5.611954   4.299487   4.477862   5.365601   2.252350
    14  C    6.286206   4.236435   2.557925   2.854638   1.386422
    15  H    7.116931   5.021823   2.963774   2.852513   2.217346
    16  C    4.907353   2.832013   1.389418   2.137506   2.255285
    17  N    4.299487   2.503385   2.417368   3.391280   2.257042
    18  B    2.846001   1.568945   3.014041   4.097799   3.782974
    19  F    3.047428   2.428043   3.973246   5.020656   4.352117
    20  F    3.047428   2.428043   3.973246   5.020656   4.352117
    21  H    4.320880   3.305487   2.958617   2.850710   6.576237
                   11         12         13         14         15
    11  H    0.000000
    12  C    2.219575   0.000000
    13  H    2.718550   1.079910   0.000000
    14  C    2.216263   2.244799   3.300537   0.000000
    15  H    2.704560   3.298403   4.330250   1.079711   0.000000
    16  C    3.307564   2.208343   3.233236   1.418327   2.224360
    17  N    3.288783   1.338998   2.106350   2.275802   3.314949
    18  B    4.764225   2.600187   2.846001   3.798356   4.789011
    19  F    5.224839   3.098540   3.047428   4.562363   5.564630
    20  F    5.224839   3.098540   3.047428   4.562363   5.564630
    21  H    7.609139   6.295272   7.109162   5.487222   5.681614
                   16         17         18         19         20
    16  C    0.000000
    17  N    1.393188   0.000000
    18  B    2.635075   1.568945   0.000000
    19  F    3.546612   2.428043   1.392400   0.000000
    20  F    3.546612   2.428043   1.392400   2.292896   0.000000
    21  H    4.324586   5.014272   4.779929   5.555487   5.555487
                   21
    21  H    0.000000
 Symmetry turned off by external request.
 Stoichiometry    C9H7BF2N2
 Framework group  CS[SG(C9H7BN2),X(F2)]
 Deg. of freedom    38
 Full point group                 CS      NOp   2
 Rotational constants (GHZ):      1.2778296      0.6431577      0.4673403
 Leave Link  202 at Tue Mar  1 10:16:51 2016, MaxMem=  2621440000 cpu:         0.1
 (Enter /cm/shared/apps/gaussian/g09D01/g09/l301.exe)
 Standard basis: CC-pVTZ (5D, 7F)
 Ernie: Thresh=  0.10000D-02 Tol=  0.10000D-05 Strict=F.
 Ernie:  42 primitive shells out of 420 were deleted.
   518 basis functions,   847 primitive gaussians,   595 cartesian basis functions
    49 alpha electrons       49 beta electrons
       nuclear repulsion energy       859.7430389254 Hartrees.
 IExCor=20419 DFT=T Ex+Corr=CAM-B3LYP ExCW=0 ScaHFX=  1.000000
 ScaDFX=  1.000000  1.000000  1.000000  0.810000 ScalE2=  1.000000  1.000000
 IRadAn=      0 IRanWt=     -1 IRanGd=            0 ICorTp=0 IEmpDi=  4
  HFx wShort=  0.000000 wLong=  0.330000 cFull=  0.190000 cShort=  0.000000 cLong=  0.460000
  DFx wShort=  0.000000 wLong=  0.330000 cFull=  0.190000 cShort=  0.000000 cLong=  0.460000
 NAtoms=   21 NActive=   21 NUniq=   21 SFac= 1.00D+00 NAtFMM=   60 NAOKFM=F Big=F
 Integral buffers will be    131072 words long.
 Raffenetti 1 integral format.
 Two-electron integral symmetry is turned off.
 Leave Link  301 at Tue Mar  1 10:16:51 2016, MaxMem=  2621440000 cpu:         0.7
 (Enter /cm/shared/apps/gaussian/g09D01/g09/l302.exe)
 NPDir=0 NMtPBC=     1 NCelOv=     1 NCel=       1 NClECP=     1 NCelD=      1
         NCelK=      1 NCelE2=     1 NClLst=     1 CellRange=     0.0.
 One-electron integrals computed using PRISM.
 NBasis=   518 RedAO= T EigKep=  4.56D-05  NBF=   518
 NBsUse=   518 1.00D-06 EigRej= -1.00D+00 NBFU=   518
 Precomputing XC quadrature grid using
 IXCGrd= 4 IRadAn=           0 IRanWt=          -1 IRanGd=           0 AccXCQ= 0.00D+00.
 Generated NRdTot=       0 NPtTot=           0 NUsed=           0 NTot=          32
 NSgBfM=   594   594   594   594   594 MxSgAt=    21 MxSgA2=    21.
 Leave Link  302 at Tue Mar  1 10:16:51 2016, MaxMem=  2621440000 cpu:         6.7
 (Enter /cm/shared/apps/gaussian/g09D01/g09/l308.exe)
 Leave Link  308 at Tue Mar  1 10:16:52 2016, MaxMem=  2621440000 cpu:         1.4
 (Enter /cm/shared/apps/gaussian/g09D01/g09/l303.exe)
 DipDrv:  MaxL=1.
 Leave Link  303 at Tue Mar  1 10:16:52 2016, MaxMem=  2621440000 cpu:         0.8
 (Enter /cm/shared/apps/gaussian/g09D01/g09/l401.exe)
 ExpMin= 7.70D-02 ExpMax= 1.95D+04 ExpMxC= 6.65D+02 IAcc=2 IRadAn=         4 AccDes= 0.00D+00
 Harris functional with IExCor=20419 and IRadAn=       4 diagonalized for initial guess.
 HarFok:  IExCor=20419 AccDes= 0.00D+00 IRadAn=         4 IDoV= 1 UseB2=F ITyADJ=14
 ICtDFT=  3500011 ScaDFX=  1.000000  1.000000  1.000000  1.000000
 FoFCou: FMM=F IPFlag=           0 FMFlag=      100000 FMFlg1=           0
         NFxFlg=           0 DoJE=T BraDBF=F KetDBF=T FulRan=T
         wScrn=  0.000000 ICntrl=     500 IOpCl=  0 I1Cent=   200000004 NGrid=           0
         NMat0=    1 NMatS0=      1 NMatT0=    0 NMatD0=    1 NMtDS0=    0 NMtDT0=    0
 Symmetry not used in FoFCou.
 Harris En= -656.851318968160    
 JPrj=0 DoOrth=F DoCkMO=F.
 Leave Link  401 at Tue Mar  1 10:16:54 2016, MaxMem=  2621440000 cpu:        19.2
 (Enter /cm/shared/apps/gaussian/g09D01/g09/l502.exe)
 Closed shell SCF:
 Using DIIS extrapolation, IDIIS=  1040.
 Two-electron integral symmetry not used.
 IVT=     1091377 IEndB=     1091377 NGot=  2621440000 MDV=  2620719884
 LenX=  2620719884 LenY=  2620365264
 Requested convergence on RMS density matrix=1.00D-08 within 128 cycles.
 Requested convergence on MAX density matrix=1.00D-06.
 Requested convergence on             energy=1.00D-06.
 No special actions if energy rises.
 Fock matrices will be formed incrementally for  20 cycles.
 Integral accuracy reduced to 1.0D-05 until final iterations.

 Cycle   1  Pass 0  IDiag  1:
 FoFJK:  IHMeth= 1 ICntrl=       0 DoSepK=T KAlg= 0 I1Cent=   0 FoldK=F
 IRaf=         1 NMat=   1 IRICut=       1 DoRegI=T DoRafI=F ISym2E= 0.
 FoFCou: FMM=F IPFlag=           0 FMFlag=      100000 FMFlg1=           0
         NFxFlg=           0 DoJE=T BraDBF=F KetDBF=F FulRan=T
         wScrn=  0.000000 ICntrl=     500 IOpCl=  0 I1Cent=           0 NGrid=           0
         NMat0=    1 NMatS0=      1 NMatT0=    0 NMatD0=    1 NMtDS0=    0 NMtDT0=    0
 Symmetry not used in FoFCou.
 E= -681.118911824184    
 DIIS: error= 4.10D-02 at cycle   1 NSaved=   1.
 NSaved= 1 IEnMin= 1 EnMin= -681.118911824184     IErMin= 1 ErrMin= 4.10D-02
 ErrMax= 4.10D-02  0.00D+00 EMaxC= 1.00D-01 BMatC= 8.98D-01 BMatP= 8.98D-01
 IDIUse=3 WtCom= 5.90D-01 WtEn= 4.10D-01
 Coeff-Com:  0.100D+01
 Coeff-En:   0.100D+01
 Coeff:      0.100D+01
 Gap=     0.184 Goal=   None    Shift=    0.000
 GapD=    0.184 DampG=1.000 DampE=0.500 DampFc=0.5000 IDamp=-1.
 Damping current iteration by 5.00D-01
 RMSDP=2.19D-03 MaxDP=9.92D-02              OVMax= 1.60D-01

 Cycle   2  Pass 0  IDiag  1:
 RMSU=  1.08D-03    CP:  9.77D-01
 E= -681.206656799149     Delta-E=       -0.087744974965 Rises=F Damp=T
 DIIS: error= 1.70D-02 at cycle   2 NSaved=   2.
 NSaved= 2 IEnMin= 2 EnMin= -681.206656799149     IErMin= 2 ErrMin= 1.70D-02
 ErrMax= 1.70D-02  0.00D+00 EMaxC= 1.00D-01 BMatC= 1.65D-01 BMatP= 8.98D-01
 IDIUse=3 WtCom= 8.30D-01 WtEn= 1.70D-01
 Coeff-Com: -0.349D+00 0.135D+01
 Coeff-En:   0.000D+00 0.100D+01
 Coeff:     -0.289D+00 0.129D+01
 Gap=     0.197 Goal=   None    Shift=    0.000
 RMSDP=7.51D-04 MaxDP=3.80D-02 DE=-8.77D-02 OVMax= 1.82D-01

 Cycle   3  Pass 0  IDiag  1:
 RMSU=  6.26D-04    CP:  9.72D-01  1.38D+00
 E= -681.255368270598     Delta-E=       -0.048711471449 Rises=F Damp=F
 DIIS: error= 1.69D-02 at cycle   3 NSaved=   3.
 NSaved= 3 IEnMin= 3 EnMin= -681.255368270598     IErMin= 3 ErrMin= 1.69D-02
 ErrMax= 1.69D-02  0.00D+00 EMaxC= 1.00D-01 BMatC= 8.00D-02 BMatP= 1.65D-01
 IDIUse=3 WtCom= 8.31D-01 WtEn= 1.69D-01
 Coeff-Com: -0.311D+00 0.692D+00 0.619D+00
 Coeff-En:   0.000D+00 0.871D-01 0.913D+00
 Coeff:     -0.258D+00 0.589D+00 0.669D+00
 Gap=     0.192 Goal=   None    Shift=    0.000
 RMSDP=4.78D-04 MaxDP=1.75D-02 DE=-4.87D-02 OVMax= 8.40D-02

 Cycle   4  Pass 0  IDiag  1:
 RMSU=  1.47D-04    CP:  9.62D-01  1.68D+00  4.99D-01
 E= -681.309446773477     Delta-E=       -0.054078502879 Rises=F Damp=F
 DIIS: error= 6.80D-03 at cycle   4 NSaved=   4.
 NSaved= 4 IEnMin= 4 EnMin= -681.309446773477     IErMin= 4 ErrMin= 6.80D-03
 ErrMax= 6.80D-03  0.00D+00 EMaxC= 1.00D-01 BMatC= 1.14D-02 BMatP= 8.00D-02
 IDIUse=3 WtCom= 9.32D-01 WtEn= 6.80D-02
 Coeff-Com: -0.158D+00 0.343D+00 0.419D+00 0.397D+00
 Coeff-En:   0.000D+00 0.000D+00 0.117D+00 0.883D+00
 Coeff:     -0.148D+00 0.319D+00 0.398D+00 0.430D+00
 Gap=     0.193 Goal=   None    Shift=    0.000
 RMSDP=1.07D-04 MaxDP=5.52D-03 DE=-5.41D-02 OVMax= 2.53D-02

 Cycle   5  Pass 0  IDiag  1:
 RMSU=  6.25D-05    CP:  9.63D-01  1.64D+00  6.09D-01  7.38D-01
 E= -681.319016701138     Delta-E=       -0.009569927660 Rises=F Damp=F
 DIIS: error= 5.45D-04 at cycle   5 NSaved=   5.
 NSaved= 5 IEnMin= 5 EnMin= -681.319016701138     IErMin= 5 ErrMin= 5.45D-04
 ErrMax= 5.45D-04  0.00D+00 EMaxC= 1.00D-01 BMatC= 8.45D-05 BMatP= 1.14D-02
 IDIUse=3 WtCom= 9.95D-01 WtEn= 5.45D-03
 Coeff-Com:  0.137D-01-0.305D-01-0.121D-02 0.927D-01 0.925D+00
 Coeff-En:   0.000D+00 0.000D+00 0.000D+00 0.000D+00 0.100D+01
 Coeff:      0.137D-01-0.303D-01-0.120D-02 0.922D-01 0.926D+00
 Gap=     0.194 Goal=   None    Shift=    0.000
 RMSDP=1.76D-05 MaxDP=3.72D-04 DE=-9.57D-03 OVMax= 3.97D-03

 Cycle   6  Pass 0  IDiag  1:
 RMSU=  1.27D-05    CP:  9.63D-01  1.65D+00  6.10D-01  8.13D-01  9.92D-01
 E= -681.319088252192     Delta-E=       -0.000071551055 Rises=F Damp=F
 DIIS: error= 2.18D-04 at cycle   6 NSaved=   6.
 NSaved= 6 IEnMin= 6 EnMin= -681.319088252192     IErMin= 6 ErrMin= 2.18D-04
 ErrMax= 2.18D-04  0.00D+00 EMaxC= 1.00D-01 BMatC= 9.86D-06 BMatP= 8.45D-05
 IDIUse=3 WtCom= 9.98D-01 WtEn= 2.18D-03
 Coeff-Com:  0.134D-01-0.294D-01-0.193D-01 0.225D-01 0.447D+00 0.566D+00
 Coeff-En:   0.000D+00 0.000D+00 0.000D+00 0.000D+00 0.000D+00 0.100D+01
 Coeff:      0.133D-01-0.293D-01-0.193D-01 0.225D-01 0.446D+00 0.567D+00
 Gap=     0.194 Goal=   None    Shift=    0.000
 RMSDP=4.97D-06 MaxDP=1.57D-04 DE=-7.16D-05 OVMax= 1.51D-03

 Initial convergence to 1.0D-05 achieved.  Increase integral accuracy.
 Cycle   7  Pass 1  IDiag  1:
 E= -681.319090866158     Delta-E=       -0.000002613966 Rises=F Damp=F
 DIIS: error= 1.84D-04 at cycle   1 NSaved=   1.
 NSaved= 1 IEnMin= 1 EnMin= -681.319090866158     IErMin= 1 ErrMin= 1.84D-04
 ErrMax= 1.84D-04  0.00D+00 EMaxC= 1.00D-01 BMatC= 9.05D-06 BMatP= 9.05D-06
 IDIUse=3 WtCom= 9.98D-01 WtEn= 1.84D-03
 Coeff-Com:  0.100D+01
 Coeff-En:   0.100D+01
 Coeff:      0.100D+01
 Gap=     0.194 Goal=   None    Shift=    0.000
 RMSDP=4.97D-06 MaxDP=1.57D-04 DE=-2.61D-06 OVMax= 8.10D-04

 Cycle   8  Pass 1  IDiag  1:
 RMSU=  1.26D-04    CP:  1.00D+00
 E= -681.319094479634     Delta-E=       -0.000003613476 Rises=F Damp=F
 DIIS: error= 1.00D-04 at cycle   2 NSaved=   2.
 NSaved= 2 IEnMin= 2 EnMin= -681.319094479634     IErMin= 2 ErrMin= 1.00D-04
 ErrMax= 1.00D-04  0.00D+00 EMaxC= 1.00D-01 BMatC= 1.54D-06 BMatP= 9.05D-06
 IDIUse=3 WtCom= 9.99D-01 WtEn= 1.00D-03
 Coeff-Com:  0.198D+00 0.802D+00
 Coeff-En:   0.000D+00 0.100D+01
 Coeff:      0.197D+00 0.803D+00
 Gap=     0.194 Goal=   None    Shift=    0.000
 RMSDP=4.34D-06 MaxDP=1.54D-04 DE=-3.61D-06 OVMax= 7.62D-04

 Cycle   9  Pass 1  IDiag  1:
 RMSU=  2.85D-06    CP:  1.00D+00  1.03D+00
 E= -681.319094596653     Delta-E=       -0.000000117019 Rises=F Damp=F
 DIIS: error= 1.09D-04 at cycle   3 NSaved=   3.
 NSaved= 3 IEnMin= 3 EnMin= -681.319094596653     IErMin= 2 ErrMin= 1.00D-04
 ErrMax= 1.09D-04  0.00D+00 EMaxC= 1.00D-01 BMatC= 1.48D-06 BMatP= 1.54D-06
 IDIUse=3 WtCom= 9.99D-01 WtEn= 1.09D-03
 Coeff-Com: -0.121D-01 0.496D+00 0.516D+00
 Coeff-En:   0.000D+00 0.483D+00 0.517D+00
 Coeff:     -0.121D-01 0.496D+00 0.516D+00
 Gap=     0.194 Goal=   None    Shift=    0.000
 RMSDP=1.64D-06 MaxDP=4.43D-05 DE=-1.17D-07 OVMax= 3.95D-04

 Cycle  10  Pass 1  IDiag  1:
 RMSU=  9.06D-07    CP:  1.00D+00  1.03D+00  6.58D-01
 E= -681.319096005021     Delta-E=       -0.000001408368 Rises=F Damp=F
 DIIS: error= 5.35D-06 at cycle   4 NSaved=   4.
 NSaved= 4 IEnMin= 4 EnMin= -681.319096005021     IErMin= 4 ErrMin= 5.35D-06
 ErrMax= 5.35D-06  0.00D+00 EMaxC= 1.00D-01 BMatC= 7.08D-09 BMatP= 1.48D-06
 IDIUse=1 WtCom= 1.00D+00 WtEn= 0.00D+00
 Coeff-Com: -0.653D-02 0.191D+00 0.199D+00 0.616D+00
 Coeff:     -0.653D-02 0.191D+00 0.199D+00 0.616D+00
 Gap=     0.194 Goal=   None    Shift=    0.000
 RMSDP=1.42D-07 MaxDP=4.78D-06 DE=-1.41D-06 OVMax= 3.56D-05

 Cycle  11  Pass 1  IDiag  1:
 RMSU=  1.19D-07    CP:  1.00D+00  1.03D+00  6.73D-01  1.05D+00
 E= -681.319096012912     Delta-E=       -0.000000007891 Rises=F Damp=F
 DIIS: error= 4.34D-06 at cycle   5 NSaved=   5.
 NSaved= 5 IEnMin= 5 EnMin= -681.319096012912     IErMin= 5 ErrMin= 4.34D-06
 ErrMax= 4.34D-06  0.00D+00 EMaxC= 1.00D-01 BMatC= 1.25D-09 BMatP= 7.08D-09
 IDIUse=1 WtCom= 1.00D+00 WtEn= 0.00D+00
 Coeff-Com:  0.196D-02-0.113D+00-0.123D+00 0.221D+00 0.101D+01
 Coeff:      0.196D-02-0.113D+00-0.123D+00 0.221D+00 0.101D+01
 Gap=     0.194 Goal=   None    Shift=    0.000
 RMSDP=1.61D-07 MaxDP=4.46D-06 DE=-7.89D-09 OVMax= 6.04D-05

 Cycle  12  Pass 1  IDiag  1:
 RMSU=  1.03D-07    CP:  1.00D+00  1.03D+00  6.84D-01  1.17D+00  1.37D+00
 E= -681.319096016716     Delta-E=       -0.000000003804 Rises=F Damp=F
 DIIS: error= 1.42D-06 at cycle   6 NSaved=   6.
 NSaved= 6 IEnMin= 6 EnMin= -681.319096016716     IErMin= 6 ErrMin= 1.42D-06
 ErrMax= 1.42D-06  0.00D+00 EMaxC= 1.00D-01 BMatC= 3.60D-10 BMatP= 1.25D-09
 IDIUse=1 WtCom= 1.00D+00 WtEn= 0.00D+00
 Coeff-Com:  0.144D-02-0.725D-01-0.795D-01 0.502D-01 0.547D+00 0.553D+00
 Coeff:      0.144D-02-0.725D-01-0.795D-01 0.502D-01 0.547D+00 0.553D+00
 Gap=     0.194 Goal=   None    Shift=    0.000
 RMSDP=3.26D-08 MaxDP=1.11D-06 DE=-3.80D-09 OVMax= 8.75D-06

 Cycle  13  Pass 1  IDiag  1:
 RMSU=  2.81D-08    CP:  1.00D+00  1.03D+00  6.84D-01  1.18D+00  1.46D+00
                    CP:  1.07D+00
 E= -681.319096017115     Delta-E=       -0.000000000399 Rises=F Damp=F
 DIIS: error= 3.49D-07 at cycle   7 NSaved=   7.
 NSaved= 7 IEnMin= 7 EnMin= -681.319096017115     IErMin= 7 ErrMin= 3.49D-07
 ErrMax= 3.49D-07  0.00D+00 EMaxC= 1.00D-01 BMatC= 2.58D-11 BMatP= 3.60D-10
 IDIUse=1 WtCom= 1.00D+00 WtEn= 0.00D+00
 Coeff-Com:  0.273D-03-0.100D-01-0.118D-01-0.239D-01 0.653D-01 0.232D+00
 Coeff-Com:  0.749D+00
 Coeff:      0.273D-03-0.100D-01-0.118D-01-0.239D-01 0.653D-01 0.232D+00
 Coeff:      0.749D+00
 Gap=     0.194 Goal=   None    Shift=    0.000
 RMSDP=1.45D-08 MaxDP=3.27D-07 DE=-3.99D-10 OVMax= 4.23D-06

 Cycle  14  Pass 1  IDiag  1:
 RMSU=  7.94D-09    CP:  1.00D+00  1.03D+00  6.83D-01  1.18D+00  1.50D+00
                    CP:  1.14D+00  1.01D+00
 E= -681.319096017111     Delta-E=        0.000000000005 Rises=F Damp=F
 DIIS: error= 5.79D-08 at cycle   8 NSaved=   8.
 NSaved= 8 IEnMin= 7 EnMin= -681.319096017115     IErMin= 8 ErrMin= 5.79D-08
 ErrMax= 5.79D-08  0.00D+00 EMaxC= 1.00D-01 BMatC= 1.64D-12 BMatP= 2.58D-11
 IDIUse=1 WtCom= 1.00D+00 WtEn= 0.00D+00
 Coeff-Com: -0.553D-04 0.366D-02 0.362D-02-0.151D-01-0.320D-01 0.170D-01
 Coeff-Com:  0.196D+00 0.827D+00
 Coeff:     -0.553D-04 0.366D-02 0.362D-02-0.151D-01-0.320D-01 0.170D-01
 Coeff:      0.196D+00 0.827D+00
 Gap=     0.194 Goal=   None    Shift=    0.000
 RMSDP=4.83D-09 MaxDP=1.16D-07 DE= 4.77D-12 OVMax= 1.29D-06

 SCF Done:  E(RCAM-B3LYP) =  -681.319096017     A.U. after   14 cycles
            NFock= 14  Conv=0.48D-08     -V/T= 2.0062
 KE= 6.771532011611D+02 PE=-3.314726339128D+03 EE= 1.096511003024D+03
 Leave Link  502 at Tue Mar  1 10:21:52 2016, MaxMem=  2621440000 cpu:      3577.1
 (Enter /cm/shared/apps/gaussian/g09D01/g09/l801.exe)
 DoSCS=F DFT=T ScalE2(SS,OS)=  1.000000  1.000000
 ExpMin= 7.70D-02 ExpMax= 1.95D+04 ExpMxC= 6.65D+02 IAcc=3 IRadAn=         5 AccDes= 0.00D+00
 HarFok:  IExCor=  205 AccDes= 0.00D+00 IRadAn=         5 IDoV=-2 UseB2=F ITyADJ=14
 ICtDFT= 12500011 ScaDFX=  1.000000  1.000000  1.000000  1.000000
 Largest valence mixing into a core orbital is  1.02D-04
 Largest core mixing into a valence orbital is  1.62D-05
 Range of M.O.s used for correlation:    15   518
 NBasis=   518 NAE=    49 NBE=    49 NFC=    14 NFV=     0
 NROrb=    504 NOA=    35 NOB=    35 NVA=   469 NVB=   469

 **** Warning!!: The largest alpha MO coefficient is  0.28682264D+02

 Leave Link  801 at Tue Mar  1 10:21:53 2016, MaxMem=  2621440000 cpu:         3.3
 (Enter /cm/shared/apps/gaussian/g09D01/g09/l914.exe)
 RHF ground state
 MDV=  2621440000 DFT=T DoStab=F Mixed=T DoRPA=T DoScal=F NonHer=T
 Would need an additional         51747800000 words for in-memory AO integral storage.
 Making orbital integer symmetry assigments:
     8 initial guesses have been made.
 Convergence on wavefunction:    0.001000000000000
 Davidson Disk Diagonalization:  ConvIn= 1.00D-03 SkipCon=T Conv= 1.00D-03.
 Max sub-space:   200 roots to seek:     8 dimension of matrix:        32830
 Iteration     1 Dimension     8 NMult     0 NNew      8
 CISAX will form     8 AO SS matrices at one time.
 NMat=     8 NSing=     8 JSym2X= 0.
 FoFJK:  IHMeth= 1 ICntrl=       0 DoSepK=T KAlg= 0 I1Cent=   0 FoldK=F
 IRaf=         1 NMat=  16 IRICut=       1 DoRegI=T DoRafI=F ISym2E= 0.
 FoFCou: FMM=F IPFlag=           0 FMFlag=      100000 FMFlg1=           0
         NFxFlg=           0 DoJE=F BraDBF=F KetDBF=F FulRan=T
         wScrn=  0.000000 ICntrl=     500 IOpCl=  0 I1Cent=           0 NGrid=           0
         NMat0=    8 NMatS0=      8 NMatT0=    0 NMatD0=    8 NMtDS0=    0 NMtDT0=    0
 Symmetry not used in FoFCou.
 Excitation Energies [eV] at current iteration:
 Root      1 :     3.848048862659514
 Root      2 :     4.549979884795656
 Root      3 :     4.773658144894416
 Root      4 :     6.048134121642193
 Root      5 :     6.329427879215564
 Root      6 :     6.895442342801349
 Root      7 :     6.968020726780380
 Root      8 :     7.735328655200831
 Iteration     2 Dimension    12 NMult     8 NNew      4
 CISAX will form     4 AO SS matrices at one time.
 NMat=     4 NSing=     4 JSym2X= 0.
 Root      1 not converged, maximum delta is    0.083898040866854
 Excitation Energies [eV] at current iteration:
 Root      1 :     3.156256886207611   Change is   -0.691791976451904
 Root      2 :     4.022106565043858   Change is   -0.527873319751798
 Iteration     3 Dimension    16 NMult    12 NNew      4
 CISAX will form     4 AO SS matrices at one time.
 NMat=     4 NSing=     4 JSym2X= 0.
 Root      1 not converged, maximum delta is    0.020086032420060
 Excitation Energies [eV] at current iteration:
 Root      1 :     3.105772894849372   Change is   -0.050483991358239
 Root      2 :     4.002102031409523   Change is   -0.020004533634335
 Iteration     4 Dimension    20 NMult    16 NNew      4
 CISAX will form     4 AO SS matrices at one time.
 NMat=     4 NSing=     4 JSym2X= 0.
 Root      1 not converged, maximum delta is    0.003781641915019
 Excitation Energies [eV] at current iteration:
 Root      1 :     3.103052335673215   Change is   -0.002720559176157
 Root      2 :     3.998042573507953   Change is   -0.004059457901570
 Iteration     5 Dimension    24 NMult    20 NNew      4
 CISAX will form     4 AO SS matrices at one time.
 NMat=     4 NSing=     4 JSym2X= 0.
 Root      1 not converged, maximum delta is    0.001413836495203
 Excitation Energies [eV] at current iteration:
 Root      1 :     3.102856689055458   Change is   -0.000195646617757
 Root      2 :     3.997692283271381   Change is   -0.000350290236573
 Iteration     6 Dimension    28 NMult    24 NNew      4
 CISAX will form     4 AO SS matrices at one time.
 NMat=     4 NSing=     4 JSym2X= 0.
 Root      1 has converged.
 Excitation Energies [eV] at current iteration:
 Root      1 :     3.102846028196956   Change is   -0.000010660858502
 Root      2 :     3.997655140795955   Change is   -0.000037142475425
 Convergence achieved on expansion vectors.
 ***********************************************************************
 Excited states from <AA,BB:AA,BB> singles matrix:
 ***********************************************************************
 
 1PDM for each excited state written to RWF  633
 Ground to excited state transition densities written to RWF  633
 Ground to excited state transition electric dipole moments (Au):
       state          X           Y           Z        Dip. S.      Osc.
         1         1.2299      1.7413      1.4128      6.5406      0.4972
 Ground to excited state transition velocity dipole moments (Au):
       state          X           Y           Z        Dip. S.      Osc.
         1        -0.1389     -0.1967     -0.1596      0.0834      0.4878
 Ground to excited state transition magnetic dipole moments (Au):
       state          X           Y           Z
         1         0.0470      0.4385     -0.5813
 Ground to excited state transition velocity quadrupole moments (Au):
       state          XX          YY          ZZ          XY          XZ          YZ
         1         0.0215      0.0015     -1.9477      0.0159     -0.8345     -1.1992
 <0|del|b> * <b|rxdel|0> + <0|del|b> * <b|delr+rdel|0>
 Rotatory Strengths (R) in cgs (10**-40 erg-esu-cm/Gauss)
       state          XX          YY          ZZ    R(velocity)    E-M Angle
         1      -496.5345    791.7738   -295.2399     -0.0002       90.00
 1/2[<0|r|b>*<b|rxdel|0> + (<0|rxdel|b>*<b|r|0>)*]
 Rotatory Strengths (R) in cgs (10**-40 erg-esu-cm/Gauss)
       state          XX          YY          ZZ     R(length)
         1       -40.8467   -539.9618    580.8082     -0.0001
  1/2[<0|del|b>*<b|r|0> + (<0|r|b>*<b|del|0>)*] (Au)
       state          X           Y           Z        Dip. S.   Osc.(frdel)
         1        -0.1708     -0.3424     -0.2254      0.7387      0.4925

 Excitation energies and oscillator strengths:
 
 Excited state symmetry could not be determined.
 Excited State   1:      Singlet-?Sym    3.1028 eV  399.58 nm  f=0.4972  <S**2>=0.000
      15 -> 54        -0.00009
      15 -> 59         0.00007
      15 -> 63         0.00032
      15 -> 66        -0.00017
      15 -> 68         0.00035
      15 -> 70        -0.00008
      15 -> 73         0.00054
      15 -> 74         0.00003
      15 -> 77         0.00034
      15 -> 84        -0.00006
      15 -> 85        -0.00026
      15 -> 87        -0.00002
      15 -> 90        -0.00018
      15 -> 95        -0.00015
      15 -> 98        -0.00008
      15 ->101         0.00004
      15 ->103        -0.00009
      15 ->104        -0.00009
      15 ->109         0.00017
      15 ->111        -0.00022
      15 ->116        -0.00015
      15 ->117        -0.00007
      15 ->118        -0.00013
      15 ->121        -0.00010
      15 ->126        -0.00005
      15 ->132        -0.00014
      15 ->139         0.00021
      15 ->142        -0.00027
      15 ->145        -0.00001
      15 ->146        -0.00034
      15 ->148         0.00009
      15 ->154         0.00003
      15 ->160        -0.00011
      15 ->162         0.00011
      15 ->163         0.00001
      15 ->166         0.00018
      15 ->169        -0.00005
      15 ->174        -0.00004
      15 ->175        -0.00003
      15 ->176         0.00001
      15 ->177         0.00008
      15 ->182         0.00006
      15 ->183        -0.00002
      15 ->187        -0.00003
      15 ->190        -0.00013
      15 ->192         0.00004
      15 ->196        -0.00005
      15 ->202         0.00031
      15 ->204        -0.00027
      15 ->206        -0.00007
      15 ->212        -0.00005
      15 ->215         0.00009
      15 ->216        -0.00005
      15 ->219        -0.00007
      15 ->222         0.00010
      15 ->229        -0.00030
      15 ->231         0.00007
      15 ->236         0.00002
      15 ->239         0.00005
      15 ->246         0.00007
      15 ->256         0.00002
      15 ->257        -0.00002
      15 ->261         0.00002
      15 ->270         0.00001
      15 ->272        -0.00005
      15 ->274        -0.00001
      15 ->277         0.00002
      15 ->280        -0.00003
      15 ->293        -0.00001
      15 ->300         0.00002
      15 ->303        -0.00002
      15 ->307         0.00002
      15 ->316         0.00002
      15 ->327         0.00001
      15 ->337         0.00002
      15 ->341         0.00002
      15 ->351         0.00001
      15 ->363         0.00002
      15 ->377        -0.00001
      15 ->382         0.00002
      15 ->397        -0.00002
      15 ->413         0.00001
      15 ->415        -0.00001
      15 ->426         0.00003
      15 ->430        -0.00004
      15 ->434         0.00002
      15 ->439         0.00002
      15 ->440        -0.00009
      15 ->460         0.00001
      15 ->461         0.00002
      15 ->491        -0.00001
      16 -> 51         0.00040
      16 -> 56         0.00011
      16 -> 75         0.00022
      16 -> 82         0.00029
      16 -> 88        -0.00023
      16 -> 99         0.00034
      16 ->108         0.00041
      16 ->115        -0.00075
      16 ->124         0.00012
      16 ->127        -0.00048
      16 ->131         0.00018
      16 ->133         0.00054
      16 ->144         0.00022
      16 ->149         0.00026
      16 ->151         0.00001
      16 ->153         0.00032
      16 ->159         0.00029
      16 ->167         0.00023
      16 ->171        -0.00001
      16 ->172        -0.00009
      16 ->178         0.00021
      16 ->189         0.00018
      16 ->193         0.00002
      16 ->201         0.00010
      16 ->211        -0.00006
      16 ->214        -0.00017
      16 ->223         0.00010
      16 ->228        -0.00024
      16 ->230        -0.00004
      16 ->233         0.00001
      16 ->234        -0.00005
      16 ->244        -0.00012
      16 ->254         0.00006
      16 ->262        -0.00002
      16 ->268        -0.00001
      16 ->287        -0.00001
      16 ->290        -0.00001
      16 ->317        -0.00002
      16 ->323         0.00001
      16 ->332         0.00001
      16 ->349        -0.00002
      16 ->398         0.00001
      16 ->409         0.00002
      16 ->421        -0.00002
      16 ->422        -0.00001
      16 ->425        -0.00012
      16 ->433        -0.00004
      16 ->438         0.00004
      16 ->443         0.00002
      16 ->444        -0.00001
      16 ->446        -0.00001
      16 ->486         0.00002
      17 -> 54         0.00049
      17 -> 57         0.00022
      17 -> 59        -0.00056
      17 -> 63        -0.00099
      17 -> 66         0.00005
      17 -> 68        -0.00001
      17 -> 69        -0.00005
      17 -> 70         0.00160
      17 -> 72         0.00002
      17 -> 73        -0.00157
      17 -> 74        -0.00009
      17 -> 77        -0.00020
      17 -> 80         0.00008
      17 -> 81        -0.00003
      17 -> 84         0.00003
      17 -> 85        -0.00035
      17 -> 87        -0.00004
      17 -> 90        -0.00027
      17 -> 93        -0.00001
      17 -> 94        -0.00001
      17 -> 95         0.00045
      17 -> 96        -0.00003
      17 -> 98        -0.00097
      17 ->101         0.00016
      17 ->103        -0.00058
      17 ->104         0.00015
      17 ->109        -0.00046
      17 ->111         0.00086
      17 ->116        -0.00022
      17 ->117         0.00014
      17 ->118         0.00008
      17 ->121        -0.00041
      17 ->126         0.00001
      17 ->132        -0.00004
      17 ->137        -0.00027
      17 ->139        -0.00016
      17 ->142        -0.00004
      17 ->146        -0.00010
      17 ->148         0.00006
      17 ->154         0.00013
      17 ->160        -0.00017
      17 ->162        -0.00019
      17 ->163        -0.00005
      17 ->166        -0.00043
      17 ->168        -0.00002
      17 ->169        -0.00030
      17 ->174         0.00022
      17 ->175        -0.00006
      17 ->177         0.00004
      17 ->182        -0.00004
      17 ->183        -0.00002
      17 ->187        -0.00014
      17 ->190        -0.00010
      17 ->192        -0.00001
      17 ->194        -0.00001
      17 ->195         0.00002
      17 ->196        -0.00038
      17 ->197        -0.00001
      17 ->202         0.00021
      17 ->204        -0.00027
      17 ->205        -0.00001
      17 ->206        -0.00038
      17 ->207        -0.00001
      17 ->209        -0.00012
      17 ->212         0.00044
      17 ->215         0.00001
      17 ->222        -0.00019
      17 ->229        -0.00007
      17 ->231         0.00018
      17 ->236         0.00012
      17 ->242         0.00002
      17 ->245         0.00013
      17 ->246        -0.00005
      17 ->253        -0.00007
      17 ->256        -0.00004
      17 ->257        -0.00010
      17 ->261         0.00008
      17 ->270         0.00003
      17 ->272        -0.00003
      17 ->274         0.00013
      17 ->277         0.00004
      17 ->280         0.00004
      17 ->285        -0.00006
      17 ->289         0.00006
      17 ->293        -0.00003
      17 ->300        -0.00005
      17 ->303         0.00006
      17 ->307         0.00006
      17 ->309         0.00004
      17 ->316        -0.00004
      17 ->324         0.00001
      17 ->327         0.00002
      17 ->331         0.00002
      17 ->336         0.00004
      17 ->337         0.00001
      17 ->341         0.00007
      17 ->344         0.00008
      17 ->348        -0.00006
      17 ->351        -0.00005
      17 ->353         0.00005
      17 ->355         0.00006
      17 ->358        -0.00002
      17 ->359        -0.00004
      17 ->363         0.00005
      17 ->368         0.00002
      17 ->371         0.00003
      17 ->379        -0.00005
      17 ->382         0.00001
      17 ->392         0.00002
      17 ->395        -0.00008
      17 ->397        -0.00002
      17 ->400         0.00003
      17 ->402         0.00003
      17 ->403        -0.00002
      17 ->404        -0.00003
      17 ->405        -0.00001
      17 ->408         0.00006
      17 ->414         0.00001
      17 ->415        -0.00003
      17 ->419        -0.00002
      17 ->424         0.00002
      17 ->426         0.00002
      17 ->434        -0.00003
      17 ->439        -0.00001
      17 ->440         0.00002
      17 ->457        -0.00001
      17 ->460         0.00002
      17 ->462         0.00001
      17 ->463        -0.00002
      17 ->466         0.00001
      17 ->468         0.00001
      17 ->473        -0.00001
      17 ->478        -0.00001
      18 -> 52         0.00088
      18 -> 55        -0.00035
      18 -> 58         0.00079
      18 -> 61         0.00029
      18 -> 62         0.00129
      18 -> 65         0.00036
      18 -> 66         0.00004
      18 -> 67         0.00106
      18 -> 69         0.00036
      18 -> 70         0.00001
      18 -> 71        -0.00044
      18 -> 72        -0.00022
      18 -> 73        -0.00002
      18 -> 74         0.00032
      18 -> 78         0.00005
      18 -> 80        -0.00006
      18 -> 81        -0.00017
      18 -> 83         0.00075
      18 -> 84         0.00003
      18 -> 85         0.00003
      18 -> 87        -0.00050
      18 -> 89         0.00135
      18 -> 90         0.00001
      18 -> 93        -0.00007
      18 -> 94         0.00055
      18 -> 96        -0.00014
      18 ->100         0.00041
      18 ->102        -0.00003
      18 ->105        -0.00106
      18 ->107         0.00054
      18 ->110        -0.00022
      18 ->112         0.00101
      18 ->113         0.00094
      18 ->120         0.00005
      18 ->121        -0.00001
      18 ->123         0.00106
      18 ->125         0.00038
      18 ->128         0.00003
      18 ->130        -0.00046
      18 ->132        -0.00002
      18 ->134         0.00111
      18 ->136        -0.00048
      18 ->138         0.00009
      18 ->141        -0.00010
      18 ->145         0.00015
      18 ->152         0.00041
      18 ->155        -0.00030
      18 ->156         0.00001
      18 ->157         0.00043
      18 ->161        -0.00015
      18 ->164         0.00009
      18 ->165        -0.00006
      18 ->168         0.00013
      18 ->170        -0.00010
      18 ->175         0.00001
      18 ->176         0.00004
      18 ->181         0.00008
      18 ->183        -0.00006
      18 ->185        -0.00021
      18 ->188        -0.00003
      18 ->194        -0.00014
      18 ->195         0.00010
      18 ->196         0.00001
      18 ->198        -0.00010
      18 ->199         0.00001
      18 ->203         0.00010
      18 ->207        -0.00017
      18 ->210         0.00025
      18 ->213         0.00011
      18 ->215        -0.00004
      18 ->216        -0.00008
      18 ->217        -0.00002
      18 ->220         0.00004
      18 ->226        -0.00002
      18 ->232         0.00019
      18 ->235        -0.00006
      18 ->238        -0.00002
      18 ->240         0.00006
      18 ->243        -0.00022
      18 ->247         0.00002
      18 ->249         0.00004
      18 ->252        -0.00018
      18 ->253         0.00002
      18 ->255        -0.00004
      18 ->258         0.00010
      18 ->260        -0.00005
      18 ->264        -0.00011
      18 ->265        -0.00011
      18 ->273        -0.00009
      18 ->276        -0.00009
      18 ->279        -0.00003
      18 ->283        -0.00004
      18 ->284        -0.00005
      18 ->288        -0.00009
      18 ->292         0.00004
      18 ->297         0.00005
      18 ->298        -0.00002
      18 ->304        -0.00003
      18 ->313        -0.00002
      18 ->319        -0.00004
      18 ->320         0.00011
      18 ->322        -0.00005
      18 ->329         0.00006
      18 ->330        -0.00003
      18 ->334        -0.00002
      18 ->342        -0.00002
      18 ->343         0.00011
      18 ->345         0.00009
      18 ->350         0.00001
      18 ->352         0.00005
      18 ->358        -0.00003
      18 ->359         0.00001
      18 ->361        -0.00005
      18 ->364        -0.00006
      18 ->370        -0.00006
      18 ->374         0.00003
      18 ->375         0.00004
      18 ->381        -0.00002
      18 ->386         0.00003
      18 ->388        -0.00007
      18 ->390        -0.00008
      18 ->396         0.00005
      18 ->401        -0.00001
      18 ->407        -0.00002
      18 ->410         0.00005
      18 ->414        -0.00003
      18 ->415        -0.00002
      18 ->416         0.00007
      18 ->428         0.00001
      18 ->441         0.00003
      18 ->447         0.00003
      18 ->449        -0.00002
      18 ->456        -0.00001
      18 ->459        -0.00002
      18 ->462        -0.00001
      18 ->463        -0.00001
      18 ->464        -0.00001
      18 ->471        -0.00002
      18 ->475        -0.00002
      19 -> 54        -0.00025
      19 -> 57        -0.00068
      19 -> 59         0.00090
      19 -> 63         0.00132
      19 -> 66        -0.00065
      19 -> 67         0.00002
      19 -> 68         0.00012
      19 -> 69         0.00004
      19 -> 70        -0.00136
      19 -> 73         0.00050
      19 -> 74         0.00003
      19 -> 77        -0.00074
      19 -> 78         0.00001
      19 -> 80        -0.00069
      19 -> 81         0.00028
      19 -> 83         0.00001
      19 -> 84        -0.00011
      19 -> 85        -0.00079
      19 -> 87        -0.00013
      19 -> 89        -0.00005
      19 -> 90         0.00156
      19 -> 93         0.00004
      19 -> 94         0.00001
      19 -> 95        -0.00079
      19 -> 98         0.00031
      19 ->100         0.00001
      19 ->101         0.00208
      19 ->102         0.00001
      19 ->103         0.00081
      19 ->104         0.00074
      19 ->109         0.00012
      19 ->111        -0.00123
      19 ->116         0.00020
      19 ->117         0.00057
      19 ->118         0.00130
      19 ->120         0.00002
      19 ->121         0.00085
      19 ->126        -0.00086
      19 ->130         0.00002
      19 ->132        -0.00059
      19 ->137        -0.00006
      19 ->139         0.00029
      19 ->142        -0.00014
      19 ->146        -0.00006
      19 ->154        -0.00010
      19 ->160         0.00076
      19 ->161         0.00003
      19 ->162         0.00042
      19 ->163         0.00008
      19 ->166        -0.00050
      19 ->169         0.00007
      19 ->174         0.00056
      19 ->175        -0.00030
      19 ->176         0.00007
      19 ->177         0.00023
      19 ->182        -0.00011
      19 ->183        -0.00008
      19 ->185         0.00002
      19 ->187        -0.00009
      19 ->190         0.00009
      19 ->192         0.00015
      19 ->195        -0.00001
      19 ->196         0.00014
      19 ->202        -0.00024
      19 ->204        -0.00013
      19 ->206        -0.00018
      19 ->209         0.00030
      19 ->212        -0.00015
      19 ->215         0.00013
      19 ->216        -0.00007
      19 ->219         0.00011
      19 ->222         0.00014
      19 ->229         0.00012
      19 ->231         0.00003
      19 ->236        -0.00009
      19 ->239         0.00017
      19 ->242        -0.00007
      19 ->245         0.00010
      19 ->246         0.00019
      19 ->253         0.00005
      19 ->256        -0.00005
      19 ->257         0.00015
      19 ->261        -0.00012
      19 ->270         0.00009
      19 ->277         0.00003
      19 ->278         0.00016
      19 ->280         0.00004
      19 ->285        -0.00009
      19 ->288        -0.00001
      19 ->289         0.00014
      19 ->293        -0.00001
      19 ->300         0.00009
      19 ->303         0.00018
      19 ->307         0.00004
      19 ->309        -0.00008
      19 ->316         0.00004
      19 ->324        -0.00002
      19 ->327        -0.00012
      19 ->331         0.00013
      19 ->336         0.00005
      19 ->337         0.00004
      19 ->344        -0.00004
      19 ->348        -0.00004
      19 ->351        -0.00004
      19 ->353        -0.00006
      19 ->355        -0.00002
      19 ->358         0.00001
      19 ->359         0.00003
      19 ->363         0.00007
      19 ->371         0.00003
      19 ->379        -0.00004
      19 ->382        -0.00002
      19 ->385        -0.00007
      19 ->387        -0.00003
      19 ->392        -0.00002
      19 ->395         0.00003
      19 ->397         0.00006
      19 ->400        -0.00004
      19 ->401         0.00002
      19 ->403        -0.00002
      19 ->404        -0.00004
      19 ->405        -0.00002
      19 ->414        -0.00002
      19 ->415         0.00005
      19 ->419         0.00002
      19 ->422         0.00001
      19 ->423         0.00005
      19 ->424         0.00003
      19 ->426        -0.00003
      19 ->440        -0.00002
      19 ->454         0.00001
      19 ->462        -0.00002
      19 ->463         0.00003
      19 ->468         0.00003
      19 ->469        -0.00002
      19 ->473        -0.00001
      19 ->476         0.00003
      19 ->478        -0.00003
      19 ->480        -0.00001
      20 -> 54         0.00123
      20 -> 55        -0.00003
      20 -> 57        -0.00024
      20 -> 58        -0.00002
      20 -> 59         0.00020
      20 -> 61        -0.00003
      20 -> 63         0.00190
      20 -> 65        -0.00002
      20 -> 66         0.00081
      20 -> 67        -0.00003
      20 -> 68         0.00226
      20 -> 69        -0.00005
      20 -> 70        -0.00052
      20 -> 71         0.00002
      20 -> 72        -0.00002
      20 -> 73         0.00146
      20 -> 74         0.00009
      20 -> 77        -0.00047
      20 -> 80        -0.00005
      20 -> 81         0.00001
      20 -> 83        -0.00006
      20 -> 84         0.00069
      20 -> 85        -0.00091
      20 -> 87        -0.00012
      20 -> 90        -0.00020
      20 -> 94         0.00002
      20 -> 95        -0.00084
      20 -> 96         0.00004
      20 -> 98         0.00074
      20 ->101        -0.00063
      20 ->103         0.00058
      20 ->104        -0.00044
      20 ->105         0.00001
      20 ->109         0.00091
      20 ->111         0.00030
      20 ->116        -0.00027
      20 ->117        -0.00128
      20 ->118        -0.00006
      20 ->121         0.00046
      20 ->126         0.00006
      20 ->130         0.00002
      20 ->132        -0.00065
      20 ->137         0.00030
      20 ->142        -0.00011
      20 ->146         0.00006
      20 ->148        -0.00020
      20 ->154        -0.00014
      20 ->160         0.00006
      20 ->162         0.00001
      20 ->163        -0.00035
      20 ->164        -0.00001
      20 ->166         0.00024
      20 ->169         0.00019
      20 ->174        -0.00026
      20 ->175        -0.00003
      20 ->176         0.00002
      20 ->177        -0.00005
      20 ->182        -0.00013
      20 ->183         0.00012
      20 ->185        -0.00003
      20 ->186         0.00001
      20 ->187         0.00004
      20 ->190        -0.00013
      20 ->192        -0.00005
      20 ->194         0.00002
      20 ->195        -0.00002
      20 ->196         0.00062
      20 ->197         0.00002
      20 ->198         0.00002
      20 ->202        -0.00037
      20 ->204         0.00022
      20 ->206         0.00015
      20 ->209         0.00016
      20 ->212        -0.00004
      20 ->219        -0.00012
      20 ->222         0.00007
      20 ->229        -0.00001
      20 ->231         0.00007
      20 ->236        -0.00004
      20 ->239         0.00001
      20 ->242         0.00015
      20 ->245         0.00003
      20 ->246        -0.00019
      20 ->253        -0.00001
      20 ->257        -0.00013
      20 ->261        -0.00003
      20 ->270        -0.00002
      20 ->272         0.00017
      20 ->274         0.00010
      20 ->277        -0.00006
      20 ->278        -0.00008
      20 ->280        -0.00006
      20 ->285        -0.00002
      20 ->289        -0.00009
      20 ->293        -0.00004
      20 ->299         0.00006
      20 ->303         0.00014
      20 ->307        -0.00002
      20 ->309        -0.00005
      20 ->316        -0.00005
      20 ->324        -0.00003
      20 ->327         0.00001
      20 ->336         0.00002
      20 ->341         0.00002
      20 ->344         0.00004
      20 ->348        -0.00008
      20 ->351        -0.00003
      20 ->353        -0.00002
      20 ->355         0.00001
      20 ->358        -0.00002
      20 ->359        -0.00004
      20 ->363         0.00003
      20 ->368         0.00002
      20 ->371         0.00003
      20 ->377         0.00005
      20 ->379         0.00004
      20 ->382         0.00005
      20 ->385         0.00001
      20 ->387         0.00005
      20 ->392        -0.00006
      20 ->395         0.00005
      20 ->397         0.00002
      20 ->400        -0.00003
      20 ->401         0.00001
      20 ->403         0.00002
      20 ->404         0.00004
      20 ->405         0.00002
      20 ->408         0.00001
      20 ->413         0.00003
      20 ->414         0.00002
      20 ->415        -0.00004
      20 ->419        -0.00001
      20 ->424         0.00001
      20 ->439         0.00003
      20 ->440        -0.00001
      20 ->454         0.00002
      20 ->457        -0.00001
      20 ->461        -0.00003
      20 ->462         0.00001
      20 ->463        -0.00001
      20 ->466        -0.00001
      20 ->469        -0.00001
      20 ->473        -0.00001
      20 ->510         0.00001
      20 ->512         0.00001
      21 -> 55         0.00036
      21 -> 58         0.00147
      21 -> 61         0.00086
      21 -> 62        -0.00002
      21 -> 63         0.00003
      21 -> 64         0.00002
      21 -> 65         0.00185
      21 -> 66         0.00004
      21 -> 67         0.00077
      21 -> 68         0.00005
      21 -> 69         0.00189
      21 -> 70         0.00006
      21 -> 71        -0.00244
      21 -> 72         0.00079
      21 -> 73         0.00005
      21 -> 74        -0.00040
      21 -> 78         0.00028
      21 -> 80        -0.00011
      21 -> 81        -0.00024
      21 -> 83        -0.00009
      21 -> 84         0.00001
      21 -> 85        -0.00002
      21 -> 87        -0.00005
      21 -> 89         0.00160
      21 -> 90         0.00003
      21 -> 93         0.00039
      21 -> 94        -0.00058
      21 -> 95        -0.00002
      21 -> 96        -0.00148
      21 -> 98         0.00005
      21 ->100         0.00045
      21 ->102        -0.00051
      21 ->105        -0.00066
      21 ->107         0.00009
      21 ->110        -0.00019
      21 ->112        -0.00001
      21 ->113         0.00112
      21 ->120         0.00012
      21 ->121        -0.00001
      21 ->123         0.00101
      21 ->125         0.00021
      21 ->128        -0.00058
      21 ->130        -0.00020
      21 ->132        -0.00001
      21 ->134         0.00074
      21 ->136        -0.00010
      21 ->138         0.00022
      21 ->141         0.00029
      21 ->145         0.00021
      21 ->150        -0.00006
      21 ->152         0.00060
      21 ->155        -0.00024
      21 ->157         0.00031
      21 ->161        -0.00013
      21 ->164        -0.00008
      21 ->165         0.00020
      21 ->168         0.00050
      21 ->169        -0.00002
      21 ->170        -0.00038
      21 ->175         0.00003
      21 ->176         0.00008
      21 ->179        -0.00006
      21 ->181         0.00012
      21 ->185        -0.00001
      21 ->186         0.00003
      21 ->188         0.00020
      21 ->194        -0.00026
      21 ->195        -0.00002
      21 ->196         0.00002
      21 ->198        -0.00047
      21 ->199        -0.00007
      21 ->203         0.00003
      21 ->205         0.00002
      21 ->210         0.00006
      21 ->213         0.00003
      21 ->215         0.00002
      21 ->216         0.00005
      21 ->220        -0.00010
      21 ->226        -0.00008
      21 ->232         0.00003
      21 ->235         0.00004
      21 ->238        -0.00013
      21 ->240        -0.00001
      21 ->243         0.00016
      21 ->247        -0.00017
      21 ->249        -0.00003
      21 ->252        -0.00005
      21 ->255         0.00004
      21 ->258         0.00004
      21 ->260         0.00006
      21 ->264        -0.00010
      21 ->265         0.00019
      21 ->273         0.00006
      21 ->276         0.00006
      21 ->279         0.00003
      21 ->283        -0.00004
      21 ->288        -0.00011
      21 ->292         0.00019
      21 ->297         0.00015
      21 ->298        -0.00005
      21 ->304        -0.00003
      21 ->310         0.00006
      21 ->312         0.00006
      21 ->313        -0.00004
      21 ->319         0.00004
      21 ->320         0.00001
      21 ->322         0.00002
      21 ->329         0.00004
      21 ->330         0.00002
      21 ->343        -0.00007
      21 ->350        -0.00005
      21 ->352        -0.00002
      21 ->356        -0.00002
      21 ->361        -0.00003
      21 ->364        -0.00005
      21 ->370         0.00001
      21 ->374         0.00003
      21 ->381         0.00004
      21 ->384         0.00002
      21 ->386        -0.00004
      21 ->388        -0.00003
      21 ->390        -0.00008
      21 ->393        -0.00005
      21 ->396         0.00004
      21 ->403        -0.00001
      21 ->404         0.00001
      21 ->405        -0.00001
      21 ->410        -0.00005
      21 ->414         0.00003
      21 ->415         0.00001
      21 ->416        -0.00002
      21 ->428         0.00002
      21 ->435         0.00002
      21 ->437        -0.00002
      21 ->441         0.00002
      21 ->449         0.00001
      21 ->458        -0.00002
      21 ->462         0.00001
      21 ->463         0.00001
      21 ->467        -0.00002
      21 ->475         0.00002
      22 -> 52        -0.00033
      22 -> 54        -0.00007
      22 -> 55        -0.00305
      22 -> 58         0.00271
      22 -> 61        -0.00026
      22 -> 62        -0.00038
      22 -> 65        -0.00063
      22 -> 66         0.00005
      22 -> 67         0.00154
      22 -> 68        -0.00003
      22 -> 69        -0.00167
      22 -> 70        -0.00005
      22 -> 71         0.00185
      22 -> 72        -0.00061
      22 -> 73         0.00012
      22 -> 74        -0.00204
      22 -> 77        -0.00002
      22 -> 78        -0.00183
      22 -> 80         0.00063
      22 -> 81         0.00162
      22 -> 83        -0.00019
      22 -> 84        -0.00002
      22 -> 85         0.00005
      22 -> 87        -0.00040
      22 -> 89        -0.00037
      22 -> 90        -0.00002
      22 -> 93        -0.00038
      22 -> 94        -0.00097
      22 -> 95        -0.00002
      22 -> 96         0.00140
      22 -> 98        -0.00006
      22 ->100        -0.00062
      22 ->101         0.00001
      22 ->102        -0.00243
      22 ->103         0.00003
      22 ->105        -0.00053
      22 ->107         0.00010
      22 ->110        -0.00114
      22 ->112        -0.00023
      22 ->113         0.00019
      22 ->120        -0.00026
      22 ->123        -0.00025
      22 ->125        -0.00052
      22 ->128        -0.00008
      22 ->130        -0.00070
      22 ->134        -0.00115
      22 ->136         0.00074
      22 ->138         0.00049
      22 ->141         0.00014
      22 ->145        -0.00015
      22 ->150        -0.00031
      22 ->152         0.00023
      22 ->155         0.00033
      22 ->156        -0.00001
      22 ->157         0.00002
      22 ->161         0.00038
      22 ->163         0.00004
      22 ->164        -0.00070
      22 ->165        -0.00008
      22 ->170        -0.00017
      22 ->175        -0.00002
      22 ->176        -0.00006
      22 ->179         0.00022
      22 ->181         0.00015
      22 ->183         0.00004
      22 ->185         0.00017
      22 ->186        -0.00006
      22 ->188        -0.00050
      22 ->192        -0.00002
      22 ->194        -0.00026
      22 ->195        -0.00059
      22 ->196        -0.00001
      22 ->198        -0.00016
      22 ->199        -0.00035
      22 ->203         0.00013
      22 ->205         0.00009
      22 ->207        -0.00028
      22 ->210         0.00006
      22 ->213        -0.00013
      22 ->215        -0.00009
      22 ->216        -0.00017
      22 ->217         0.00002
      22 ->220        -0.00011
      22 ->226         0.00002
      22 ->232         0.00010
      22 ->235        -0.00010
      22 ->238         0.00002
      22 ->243        -0.00006
      22 ->247         0.00009
      22 ->249        -0.00018
      22 ->252        -0.00003
      22 ->255        -0.00015
      22 ->258         0.00023
      22 ->260         0.00012
      22 ->264        -0.00009
      22 ->273         0.00009
      22 ->276         0.00005
      22 ->279        -0.00011
      22 ->283         0.00013
      22 ->284         0.00016
      22 ->288        -0.00001
      22 ->298         0.00007
      22 ->304         0.00005
      22 ->308        -0.00015
      22 ->310         0.00003
      22 ->319        -0.00004
      22 ->320        -0.00004
      22 ->322         0.00004
      22 ->329         0.00006
      22 ->330         0.00003
      22 ->334        -0.00003
      22 ->339        -0.00001
      22 ->342         0.00016
      22 ->343         0.00005
      22 ->345         0.00004
      22 ->350         0.00002
      22 ->352        -0.00006
      22 ->355        -0.00002
      22 ->356         0.00011
      22 ->358        -0.00007
      22 ->359         0.00003
      22 ->361         0.00002
      22 ->364         0.00005
      22 ->374         0.00002
      22 ->375         0.00004
      22 ->384         0.00002
      22 ->386        -0.00006
      22 ->388        -0.00008
      22 ->390         0.00005
      22 ->396         0.00001
      22 ->400        -0.00001
      22 ->401        -0.00003
      22 ->403        -0.00001
      22 ->404        -0.00002
      22 ->405         0.00007
      22 ->410        -0.00003
      22 ->414         0.00007
      22 ->415         0.00003
      22 ->416         0.00002
      22 ->428         0.00007
      22 ->431         0.00002
      22 ->435         0.00002
      22 ->441         0.00003
      22 ->447        -0.00004
      22 ->449         0.00003
      22 ->458        -0.00002
      22 ->462        -0.00002
      22 ->463        -0.00001
      22 ->464         0.00003
      22 ->470        -0.00001
      22 ->472         0.00003
      22 ->475         0.00004
      22 ->477        -0.00002
      22 ->479        -0.00001
      22 ->513        -0.00001
      23 -> 52        -0.00003
      23 -> 54         0.00260
      23 -> 55        -0.00006
      23 -> 57         0.00395
      23 -> 59        -0.00419
      23 -> 61         0.00003
      23 -> 63         0.00033
      23 -> 66        -0.00097
      23 -> 67         0.00003
      23 -> 68        -0.00159
      23 -> 69         0.00002
      23 -> 70         0.00035
      23 -> 73         0.00057
      23 -> 74         0.00004
      23 -> 77        -0.00221
      23 -> 78         0.00002
      23 -> 80        -0.00076
      23 -> 81         0.00029
      23 -> 83        -0.00024
      23 -> 84         0.00402
      23 -> 85        -0.00249
      23 -> 87        -0.00052
      23 -> 89        -0.00010
      23 -> 90         0.00212
      23 -> 93        -0.00002
      23 -> 94        -0.00003
      23 -> 95         0.00084
      23 -> 96        -0.00004
      23 -> 98        -0.00180
      23 ->100        -0.00002
      23 ->101         0.00056
      23 ->103        -0.00219
      23 ->104         0.00074
      23 ->109        -0.00044
      23 ->111        -0.00027
      23 ->116        -0.00112
      23 ->117         0.00015
      23 ->118         0.00134
      23 ->120         0.00002
      23 ->121         0.00077
      23 ->123         0.00001
      23 ->126         0.00024
      23 ->130         0.00003
      23 ->132        -0.00092
      23 ->137         0.00013
      23 ->139         0.00051
      23 ->142         0.00031
      23 ->146         0.00022
      23 ->148         0.00118
      23 ->150         0.00001
      23 ->154        -0.00032
      23 ->160         0.00075
      23 ->161         0.00003
      23 ->162         0.00047
      23 ->163         0.00017
      23 ->164         0.00001
      23 ->166         0.00043
      23 ->168         0.00001
      23 ->169         0.00009
      23 ->174        -0.00028
      23 ->175         0.00013
      23 ->176        -0.00003
      23 ->177        -0.00010
      23 ->183         0.00027
      23 ->185        -0.00008
      23 ->186         0.00002
      23 ->187         0.00033
      23 ->190        -0.00044
      23 ->192         0.00011
      23 ->194         0.00001
      23 ->195        -0.00001
      23 ->196         0.00013
      23 ->202         0.00018
      23 ->204         0.00008
      23 ->206         0.00010
      23 ->209         0.00037
      23 ->212         0.00002
      23 ->215        -0.00026
      23 ->216         0.00014
      23 ->219         0.00010
      23 ->222        -0.00002
      23 ->229         0.00006
      23 ->231         0.00004
      23 ->236        -0.00003
      23 ->239        -0.00007
      23 ->242        -0.00002
      23 ->245        -0.00006
      23 ->246        -0.00017
      23 ->253         0.00003
      23 ->256        -0.00009
      23 ->261         0.00010
      23 ->270         0.00010
      23 ->272        -0.00001
      23 ->274         0.00008
      23 ->277        -0.00011
      23 ->278         0.00012
      23 ->280         0.00021
      23 ->285        -0.00002
      23 ->289         0.00001
      23 ->293        -0.00009
      23 ->299        -0.00004
      23 ->300        -0.00004
      23 ->303        -0.00002
      23 ->307        -0.00002
      23 ->309        -0.00006
      23 ->316        -0.00002
      23 ->324         0.00007
      23 ->327        -0.00006
      23 ->331         0.00001
      23 ->336        -0.00004
      23 ->337         0.00013
      23 ->341        -0.00007
      23 ->344         0.00007
      23 ->348        -0.00011
      23 ->351         0.00004
      23 ->353         0.00005
      23 ->355        -0.00008
      23 ->356        -0.00001
      23 ->363         0.00004
      23 ->368         0.00003
      23 ->377        -0.00006
      23 ->385         0.00001
      23 ->387        -0.00008
      23 ->392        -0.00005
      23 ->395        -0.00001
      23 ->400         0.00002
      23 ->401        -0.00001
      23 ->402        -0.00003
      23 ->413         0.00004
      23 ->415        -0.00001
      23 ->419        -0.00005
      23 ->422        -0.00001
      23 ->423        -0.00006
      23 ->426         0.00004
      23 ->430        -0.00002
      23 ->439        -0.00002
      23 ->448        -0.00003
      23 ->461        -0.00004
      23 ->469         0.00002
      23 ->515        -0.00001
      24 -> 52        -0.00002
      24 -> 54         0.00303
      24 -> 55        -0.00007
      24 -> 57         0.00225
      24 -> 59         0.00334
      24 -> 61         0.00003
      24 -> 63        -0.00111
      24 -> 66        -0.00020
      24 -> 68        -0.00157
      24 -> 69         0.00006
      24 -> 70        -0.00083
      24 -> 73        -0.00159
      24 -> 74        -0.00009
      24 -> 77         0.00046
      24 -> 80        -0.00253
      24 -> 81         0.00101
      24 -> 83         0.00004
      24 -> 84         0.00153
      24 -> 85         0.00323
      24 -> 87         0.00022
      24 -> 89        -0.00008
      24 -> 90         0.00290
      24 -> 93         0.00008
      24 -> 94         0.00003
      24 -> 95        -0.00110
      24 -> 96        -0.00002
      24 -> 98        -0.00050
      24 ->101        -0.00038
      24 ->103         0.00103
      24 ->109        -0.00016
      24 ->110        -0.00001
      24 ->111        -0.00234
      24 ->116         0.00144
      24 ->117         0.00039
      24 ->118         0.00010
      24 ->120        -0.00001
      24 ->121        -0.00072
      24 ->123        -0.00001
      24 ->126        -0.00100
      24 ->132         0.00024
      24 ->137        -0.00066
      24 ->139         0.00013
      24 ->142        -0.00003
      24 ->145        -0.00001
      24 ->146        -0.00015
      24 ->148         0.00030
      24 ->154         0.00002
      24 ->160         0.00051
      24 ->161         0.00001
      24 ->162        -0.00011
      24 ->163        -0.00039
      24 ->164        -0.00003
      24 ->166        -0.00072
      24 ->168        -0.00002
      24 ->169        -0.00020
      24 ->174        -0.00002
      24 ->175        -0.00008
      24 ->176         0.00002
      24 ->177        -0.00029
      24 ->181         0.00002
      24 ->182         0.00006
      24 ->183         0.00045
      24 ->185        -0.00013
      24 ->186         0.00004
      24 ->187         0.00034
      24 ->190         0.00006
      24 ->192         0.00004
      24 ->196        -0.00014
      24 ->202         0.00021
      24 ->204        -0.00038
      24 ->206        -0.00025
      24 ->212        -0.00008
      24 ->215         0.00006
      24 ->216        -0.00003
      24 ->219        -0.00016
      24 ->222         0.00022
      24 ->229        -0.00006
      24 ->231        -0.00016
      24 ->236         0.00006
      24 ->239         0.00011
      24 ->242         0.00007
      24 ->245         0.00008
      24 ->246         0.00003
      24 ->253        -0.00005
      24 ->256        -0.00006
      24 ->257         0.00008
      24 ->261         0.00006
      24 ->270        -0.00010
      24 ->272        -0.00006
      24 ->277        -0.00009
      24 ->278         0.00013
      24 ->280        -0.00003
      24 ->285        -0.00007
      24 ->289        -0.00003
      24 ->293        -0.00014
      24 ->299         0.00010
      24 ->300         0.00012
      24 ->303        -0.00007
      24 ->307        -0.00007
      24 ->309        -0.00015
      24 ->316        -0.00002
      24 ->324        -0.00002
      24 ->327        -0.00002
      24 ->331        -0.00001
      24 ->336         0.00003
      24 ->337        -0.00003
      24 ->341        -0.00010
      24 ->344         0.00005
      24 ->348        -0.00003
      24 ->351         0.00008
      24 ->353        -0.00004
      24 ->358         0.00002
      24 ->359         0.00003
      24 ->363        -0.00002
      24 ->371         0.00003
      24 ->377         0.00004
      24 ->382         0.00006
      24 ->385         0.00003
      24 ->387        -0.00005
      24 ->395         0.00003
      24 ->397         0.00008
      24 ->400         0.00002
      24 ->401        -0.00001
      24 ->403         0.00002
      24 ->404         0.00003
      24 ->405         0.00002
      24 ->408        -0.00001
      24 ->413        -0.00001
      24 ->414        -0.00004
      24 ->415         0.00008
      24 ->423         0.00004
      24 ->424         0.00002
      24 ->426        -0.00003
      24 ->430         0.00001
      24 ->434         0.00002
      24 ->440         0.00001
      24 ->448        -0.00003
      24 ->457         0.00003
      24 ->460         0.00002
      24 ->461         0.00002
      24 ->463         0.00001
      24 ->466        -0.00005
      24 ->473         0.00002
      24 ->474        -0.00001
      24 ->476        -0.00003
      24 ->491        -0.00002
      25 -> 52         0.00003
      25 -> 54         0.00429
      25 -> 55        -0.00015
      25 -> 57        -0.00118
      25 -> 58         0.00004
      25 -> 59        -0.00254
      25 -> 61        -0.00023
      25 -> 62        -0.00002
      25 -> 63        -0.00122
      25 -> 65        -0.00003
      25 -> 66        -0.00112
      25 -> 67        -0.00005
      25 -> 68        -0.00155
      25 -> 69         0.00003
      25 -> 70        -0.00228
      25 -> 71         0.00006
      25 -> 72         0.00017
      25 -> 73        -0.00481
      25 -> 74        -0.00035
      25 -> 77        -0.00223
      25 -> 78         0.00002
      25 -> 80        -0.00056
      25 -> 81         0.00030
      25 -> 83         0.00007
      25 -> 84         0.00025
      25 -> 85        -0.00007
      25 -> 87        -0.00008
      25 -> 89         0.00005
      25 -> 90         0.00037
      25 -> 93         0.00002
      25 -> 94         0.00002
      25 -> 95         0.00148
      25 -> 98         0.00035
      25 ->100         0.00009
      25 ->101         0.00005
      25 ->102         0.00004
      25 ->103         0.00112
      25 ->104         0.00071
      25 ->105        -0.00002
      25 ->107        -0.00002
      25 ->109         0.00084
      25 ->110         0.00003
      25 ->111         0.00150
      25 ->112         0.00001
      25 ->113         0.00003
      25 ->116         0.00031
      25 ->117        -0.00038
      25 ->118         0.00064
      25 ->120        -0.00004
      25 ->121        -0.00046
      25 ->123         0.00001
      25 ->126        -0.00040
      25 ->132         0.00036
      25 ->134        -0.00001
      25 ->137         0.00043
      25 ->138         0.00002
      25 ->139        -0.00029
      25 ->141        -0.00001
      25 ->142        -0.00057
      25 ->145         0.00004
      25 ->146         0.00051
      25 ->148         0.00010
      25 ->150        -0.00003
      25 ->154         0.00031
      25 ->155        -0.00001
      25 ->157         0.00002
      25 ->160        -0.00046
      25 ->161        -0.00002
      25 ->162         0.00062
      25 ->163         0.00002
      25 ->166         0.00021
      25 ->168         0.00001
      25 ->169         0.00020
      25 ->170        -0.00001
      25 ->174         0.00030
      25 ->175         0.00023
      25 ->176        -0.00008
      25 ->177        -0.00008
      25 ->182         0.00026
      25 ->183        -0.00043
      25 ->185         0.00012
      25 ->186        -0.00004
      25 ->187        -0.00027
      25 ->188         0.00002
      25 ->190        -0.00018
      25 ->196         0.00024
      25 ->199        -0.00001
      25 ->202         0.00064
      25 ->204        -0.00020
      25 ->206         0.00028
      25 ->209         0.00022
      25 ->212         0.00006
      25 ->215         0.00007
      25 ->216        -0.00003
      25 ->219         0.00002
      25 ->222        -0.00006
      25 ->229        -0.00005
      25 ->231         0.00001
      25 ->236        -0.00006
      25 ->239         0.00011
      25 ->242        -0.00016
      25 ->245        -0.00006
      25 ->246         0.00003
      25 ->252         0.00002
      25 ->253         0.00013
      25 ->256         0.00010
      25 ->257        -0.00009
      25 ->261         0.00012
      25 ->272        -0.00006
      25 ->274        -0.00017
      25 ->278        -0.00005
      25 ->280        -0.00007
      25 ->285         0.00004
      25 ->289         0.00005
      25 ->293         0.00001
      25 ->299         0.00002
      25 ->300        -0.00003
      25 ->303        -0.00004
      25 ->307         0.00003
      25 ->309        -0.00003
      25 ->316         0.00009
      25 ->324        -0.00003
      25 ->327        -0.00007
      25 ->331        -0.00003
      25 ->337        -0.00007
      25 ->341         0.00001
      25 ->344        -0.00006
      25 ->351         0.00003
      25 ->353         0.00004
      25 ->355        -0.00003
      25 ->363         0.00003
      25 ->368        -0.00002
      25 ->377        -0.00001
      25 ->382        -0.00006
      25 ->385         0.00002
      25 ->392        -0.00004
      25 ->395        -0.00002
      25 ->404        -0.00001
      25 ->413         0.00002
      25 ->415         0.00002
      25 ->419        -0.00002
      25 ->422        -0.00001
      25 ->423        -0.00005
      25 ->426        -0.00003
      25 ->430         0.00002
      25 ->434         0.00003
      25 ->439        -0.00001
      25 ->440         0.00003
      25 ->457         0.00001
      25 ->460         0.00003
      25 ->462         0.00002
      25 ->463        -0.00002
      25 ->466         0.00002
      25 ->469         0.00002
      25 ->473         0.00003
      25 ->474        -0.00002
      25 ->476        -0.00001
      25 ->478         0.00002
      25 ->491        -0.00002
      26 -> 52        -0.00132
      26 -> 54         0.00015
      26 -> 55         0.00142
      26 -> 57        -0.00007
      26 -> 58        -0.00088
      26 -> 59        -0.00008
      26 -> 61         0.00558
      26 -> 62         0.00023
      26 -> 63        -0.00001
      26 -> 64         0.00002
      26 -> 65         0.00163
      26 -> 66         0.00011
      26 -> 67         0.00295
      26 -> 68         0.00003
      26 -> 69         0.00316
      26 -> 70         0.00002
      26 -> 71        -0.00215
      26 -> 72        -0.00380
      26 -> 73        -0.00032
      26 -> 74         0.00196
      26 -> 77        -0.00009
      26 -> 78         0.00023
      26 -> 80        -0.00075
      26 -> 81        -0.00181
      26 -> 83        -0.00210
      26 -> 84        -0.00012
      26 -> 87         0.00081
      26 -> 89        -0.00149
      26 -> 90         0.00005
      26 -> 93        -0.00110
      26 -> 94        -0.00131
      26 -> 95         0.00004
      26 -> 96         0.00010
      26 -> 98         0.00002
      26 ->100        -0.00223
      26 ->101         0.00002
      26 ->102        -0.00088
      26 ->103         0.00006
      26 ->104         0.00002
      26 ->105         0.00060
      26 ->107         0.00060
      26 ->109         0.00004
      26 ->110        -0.00072
      26 ->111         0.00006
      26 ->112        -0.00040
      26 ->113        -0.00079
      26 ->116         0.00001
      26 ->117        -0.00002
      26 ->118         0.00002
[...]
      49 <-291         0.00009
      49 <-294        -0.00018
      49 <-296        -0.00009
      49 <-301         0.00010
      49 <-311        -0.00006
      49 <-318         0.00006
      49 <-325        -0.00009
      49 <-326        -0.00002
      49 <-333        -0.00006
      49 <-335         0.00015
      49 <-338         0.00006
      49 <-347         0.00006
      49 <-357        -0.00010
      49 <-360         0.00003
      49 <-372         0.00003
      49 <-376         0.00005
      49 <-378        -0.00002
      49 <-394         0.00011
      49 <-399        -0.00002
      49 <-412        -0.00007
      49 <-417         0.00004
      49 <-421        -0.00002
      49 <-422         0.00005
      49 <-423        -0.00001
      49 <-427         0.00002
      49 <-432        -0.00001
      49 <-442        -0.00003
      49 <-445         0.00003
      49 <-451        -0.00002
 This state for optimization and/or second-order correction.
 Total Energy, E(TD-HF/TD-KS) =  -681.205068519    
 Copying the excited state density for this state as the 1-particle RhoCI density.
 SavETr:  write IOETrn=   770 NScale= 10 NData=  16 NLR=1 NState=    1 LETran=      28.
 Leave Link  914 at Tue Mar  1 10:30:53 2016, MaxMem=  2621440000 cpu:      6466.8
 (Enter /cm/shared/apps/gaussian/g09D01/g09/l601.exe)
 Copying SCF densities to generalized density rwf, IOpCl= 0 IROHF=0.

 **********************************************************************

   Populations using transition density between ground and state  1.

 **********************************************************************

 Alpha  occ. eigenvalues --  -24.69659 -24.69658 -14.43391 -14.43389 -10.31528
 Alpha  occ. eigenvalues --  -10.30683 -10.30679 -10.30059 -10.30054 -10.27652
 Alpha  occ. eigenvalues --  -10.27555 -10.26163 -10.26159  -6.89631  -1.24173
 Alpha  occ. eigenvalues --   -1.20946  -1.08681  -1.06935  -0.91134  -0.88475
 Alpha  occ. eigenvalues --   -0.87220  -0.81978  -0.75803  -0.69296  -0.67794
 Alpha  occ. eigenvalues --   -0.66524  -0.66385  -0.62504  -0.59157  -0.57762
 Alpha  occ. eigenvalues --   -0.55342  -0.53666  -0.52721  -0.51230  -0.50936
 Alpha  occ. eigenvalues --   -0.50607  -0.50118  -0.48334  -0.47565  -0.47375
 Alpha  occ. eigenvalues --   -0.46442  -0.44168  -0.43655  -0.42495  -0.41169
 Alpha  occ. eigenvalues --   -0.37565  -0.33639  -0.32884  -0.27434
 Alpha virt. eigenvalues --   -0.08037   0.06235   0.07131   0.07810   0.09076
 Alpha virt. eigenvalues --    0.09615   0.10019   0.11458   0.12197   0.13115
 Alpha virt. eigenvalues --    0.13856   0.14054   0.17817   0.19493   0.19782
 Alpha virt. eigenvalues --    0.19798   0.21869   0.22121   0.23843   0.24414
 Alpha virt. eigenvalues --    0.24722   0.28343   0.31530   0.31638   0.31738
 Alpha virt. eigenvalues --    0.31976   0.32020   0.33956   0.34658   0.35749
 Alpha virt. eigenvalues --    0.37151   0.37174   0.37697   0.39931   0.40448
 Alpha virt. eigenvalues --    0.41024   0.41134   0.41229   0.42461   0.42530
 Alpha virt. eigenvalues --    0.42686   0.43512   0.43769   0.44279   0.45281
 Alpha virt. eigenvalues --    0.45919   0.48640   0.48686   0.48990   0.49328
 Alpha virt. eigenvalues --    0.49676   0.50736   0.51322   0.52194   0.54399
 Alpha virt. eigenvalues --    0.54662   0.55486   0.55763   0.57423   0.58312
 Alpha virt. eigenvalues --    0.60540   0.61406   0.62583   0.65671   0.65843
 Alpha virt. eigenvalues --    0.66877   0.67803   0.67954   0.69939   0.70333
 Alpha virt. eigenvalues --    0.70404   0.70847   0.71396   0.72468   0.74239
 Alpha virt. eigenvalues --    0.74645   0.75880   0.76299   0.78473   0.78835
 Alpha virt. eigenvalues --    0.80900   0.82761   0.82869   0.83747   0.85270
 Alpha virt. eigenvalues --    0.85442   0.88483   0.90004   0.92344   0.92999
 Alpha virt. eigenvalues --    0.95122   0.95205   0.95365   0.96514   0.96719
 Alpha virt. eigenvalues --    0.97652   0.98111   0.99579   1.01235   1.02792
 Alpha virt. eigenvalues --    1.03439   1.03671   1.04101   1.05331   1.06241
 Alpha virt. eigenvalues --    1.07473   1.07488   1.09413   1.09803   1.10490
 Alpha virt. eigenvalues --    1.10657   1.11470   1.12847   1.17912   1.17933
 Alpha virt. eigenvalues --    1.18134   1.20011   1.20872   1.21723   1.22757
 Alpha virt. eigenvalues --    1.24260   1.25209   1.25361   1.26959   1.27078
 Alpha virt. eigenvalues --    1.28102   1.28184   1.30246   1.31586   1.32490
 Alpha virt. eigenvalues --    1.33827   1.34550   1.35238   1.37081   1.37114
 Alpha virt. eigenvalues --    1.37460   1.38675   1.40828   1.42501   1.42646
 Alpha virt. eigenvalues --    1.47417   1.47683   1.50630   1.51450   1.52237
 Alpha virt. eigenvalues --    1.53496   1.54168   1.54177   1.57302   1.60291
 Alpha virt. eigenvalues --    1.65132   1.65850   1.66582   1.68038   1.68737
 Alpha virt. eigenvalues --    1.70138   1.72180   1.72294   1.72555   1.75344
 Alpha virt. eigenvalues --    1.78818   1.80456   1.82628   1.87295   1.89168
 Alpha virt. eigenvalues --    1.89183   1.89212   1.92748   1.94406   1.95488
 Alpha virt. eigenvalues --    1.99911   2.02802   2.03884   2.05701   2.06824
 Alpha virt. eigenvalues --    2.09842   2.10053   2.11938   2.12103   2.12882
 Alpha virt. eigenvalues --    2.14140   2.17958   2.19611   2.25370   2.25404
 Alpha virt. eigenvalues --    2.25814   2.30033   2.31823   2.32548   2.33831
 Alpha virt. eigenvalues --    2.36289   2.37397   2.37713   2.38183   2.40823
 Alpha virt. eigenvalues --    2.41646   2.42111   2.42872   2.44399   2.47288
 Alpha virt. eigenvalues --    2.48014   2.50079   2.50156   2.50238   2.50602
 Alpha virt. eigenvalues --    2.50768   2.51014   2.53136   2.55196   2.58057
 Alpha virt. eigenvalues --    2.59476   2.62204   2.65510   2.66029   2.66734
 Alpha virt. eigenvalues --    2.68000   2.70025   2.70257   2.72264   2.74354
 Alpha virt. eigenvalues --    2.76074   2.78514   2.79162   2.80756   2.82254
 Alpha virt. eigenvalues --    2.84021   2.84690   2.85392   2.85709   2.87053
 Alpha virt. eigenvalues --    2.89227   2.91853   2.92762   2.94208   2.95734
 Alpha virt. eigenvalues --    2.95881   2.96612   2.97497   2.98315   2.98538
 Alpha virt. eigenvalues --    2.99047   2.99657   2.99705   3.00955   3.02522
 Alpha virt. eigenvalues --    3.02642   3.03168   3.04637   3.06462   3.06767
 Alpha virt. eigenvalues --    3.07568   3.07805   3.09498   3.10950   3.11454
 Alpha virt. eigenvalues --    3.12855   3.12934   3.13279   3.14847   3.15616
 Alpha virt. eigenvalues --    3.15823   3.16400   3.16770   3.17618   3.22154
 Alpha virt. eigenvalues --    3.22293   3.23442   3.23687   3.23970   3.24032
 Alpha virt. eigenvalues --    3.24959   3.25317   3.26613   3.27809   3.27893
 Alpha virt. eigenvalues --    3.28713   3.30270   3.30684   3.31073   3.35109
 Alpha virt. eigenvalues --    3.37116   3.37199   3.38938   3.40088   3.40599
 Alpha virt. eigenvalues --    3.42102   3.42736   3.43829   3.46572   3.46622
 Alpha virt. eigenvalues --    3.46663   3.47831   3.49471   3.51945   3.55289
 Alpha virt. eigenvalues --    3.56422   3.57641   3.58552   3.59984   3.61556
 Alpha virt. eigenvalues --    3.61801   3.63158   3.65389   3.67987   3.69724
 Alpha virt. eigenvalues --    3.70264   3.71510   3.73933   3.74569   3.74586
 Alpha virt. eigenvalues --    3.76772   3.79229   3.80873   3.82443   3.82937
 Alpha virt. eigenvalues --    3.83710   3.84539   3.86852   3.87251   3.90339
 Alpha virt. eigenvalues --    3.90847   3.91097   3.92895   3.94744   3.95082
 Alpha virt. eigenvalues --    3.96919   4.00080   4.01395   4.04033   4.05251
 Alpha virt. eigenvalues --    4.05324   4.07933   4.11846   4.14095   4.14258
 Alpha virt. eigenvalues --    4.15747   4.16268   4.17508   4.20206   4.22731
 Alpha virt. eigenvalues --    4.24952   4.27557   4.28680   4.30787   4.30948
 Alpha virt. eigenvalues --    4.33983   4.34839   4.35411   4.38357   4.39653
 Alpha virt. eigenvalues --    4.40035   4.40329   4.40917   4.43957   4.44497
 Alpha virt. eigenvalues --    4.44704   4.45632   4.49055   4.49915   4.50684
 Alpha virt. eigenvalues --    4.54876   4.55726   4.57132   4.59677   4.62694
 Alpha virt. eigenvalues --    4.62759   4.68630   4.69760   4.72711   4.73837
 Alpha virt. eigenvalues --    4.75492   4.77282   4.77792   4.77794   4.83386
 Alpha virt. eigenvalues --    4.85940   4.87721   4.89251   4.89280   4.91542
 Alpha virt. eigenvalues --    4.96159   4.96651   4.97807   5.01112   5.03279
 Alpha virt. eigenvalues --    5.04637   5.05477   5.07367   5.07511   5.09281
 Alpha virt. eigenvalues --    5.10744   5.14825   5.15951   5.19477   5.20252
 Alpha virt. eigenvalues --    5.25152   5.28335   5.29436   5.30733   5.36087
 Alpha virt. eigenvalues --    5.37214   5.38188   5.43593   5.44659   5.47019
 Alpha virt. eigenvalues --    5.47258   5.49817   5.50818   5.58041   5.60869
 Alpha virt. eigenvalues --    5.64728   5.67564   5.78438   5.79077   5.81296
 Alpha virt. eigenvalues --    5.81804   5.84035   5.84803   5.85928   5.91972
 Alpha virt. eigenvalues --    5.97058   6.02899   6.08572   6.16721   6.16981
 Alpha virt. eigenvalues --    6.31589   6.34069   6.53356   6.57231   6.62194
 Alpha virt. eigenvalues --    6.78291   6.98662   6.98733   7.01832   7.02084
 Alpha virt. eigenvalues --    7.04446   7.05414   7.11217   7.14961   7.22266
 Alpha virt. eigenvalues --    7.25990   7.29678   7.32333   7.37712   7.39790
 Alpha virt. eigenvalues --    8.48391   8.49617   8.56464   8.60358   8.64297
 Alpha virt. eigenvalues --    8.88361   8.95794   8.95830   8.99873   9.07017
 Alpha virt. eigenvalues --    9.33639   9.94938  10.35546  11.61441  11.68091
 Alpha virt. eigenvalues --   11.83687  12.03143  12.55565  12.69774  12.87402
 Alpha virt. eigenvalues --   12.91103  13.95348  14.08677  14.43667
          Condensed to atoms (all electrons):
               1          2          3          4          5          6
     1  C    0.065081   0.083626  -0.062124  -0.010753  -0.015523   0.000921
     2  C    0.083626   0.025386  -0.011344   0.001589  -0.030079   0.001142
     3  C   -0.062124  -0.011344   0.012040   0.001308   0.108445  -0.003291
     4  H   -0.010753   0.001589   0.001308   0.041287  -0.002337  -0.000358
     5  C   -0.015523  -0.030079   0.108445  -0.002337   0.126802   0.003383
     6  H    0.000921   0.001142  -0.003291  -0.000358   0.003383   0.052641
     7  N   -0.001100   0.050839  -0.011650   0.000598  -0.064782  -0.007812
     8  C   -0.005032  -0.108497   0.002913  -0.000090   0.005768  -0.000169
     9  H   -0.000937   0.012062   0.000011  -0.000004   0.000045   0.000006
    10  C    0.000008   0.000356   0.000000   0.000000  -0.000003   0.000000
    11  H    0.000000  -0.000001   0.000000   0.000000   0.000000   0.000000
    12  C    0.000037  -0.001065   0.000003   0.000000   0.000000   0.000001
    13  H   -0.000001   0.000018   0.000000   0.000000  -0.000001   0.000000
    14  C    0.000000  -0.000582  -0.000008   0.000000  -0.000037   0.000001
    15  H    0.000002   0.000036   0.000000   0.000000   0.000000   0.000000
    16  C    0.000580   0.000027  -0.000358   0.000001   0.001064  -0.000018
    17  N   -0.000100   0.006172  -0.000010  -0.000001  -0.000849  -0.000088
    18  B   -0.000866   0.004394  -0.000636   0.000054  -0.002872   0.000162
    19  F    0.000000  -0.000711  -0.000001   0.000001  -0.001392  -0.000183
    20  F    0.000000  -0.000709  -0.000002   0.000001  -0.001392  -0.000182
    21  H    0.001487  -0.011437  -0.004096  -0.000814   0.001223  -0.000112
               7          8          9         10         11         12
     1  C   -0.001100  -0.005032  -0.000937   0.000008   0.000000   0.000037
     2  C    0.050839  -0.108497   0.012062   0.000356  -0.000001  -0.001065
     3  C   -0.011650   0.002913   0.000011   0.000000   0.000000   0.000003
     4  H    0.000598  -0.000090  -0.000004   0.000000   0.000000   0.000000
     5  C   -0.064782   0.005768   0.000045  -0.000003   0.000000   0.000000
     6  H   -0.007812  -0.000169   0.000006   0.000000   0.000000   0.000001
     7  N    0.029093  -0.010554   0.000275   0.000011   0.000001   0.000846
     8  C   -0.010554   0.000136  -0.000007  -0.002912   0.000090  -0.005759
     9  H    0.000275  -0.000007   0.000016  -0.000011   0.000004  -0.000046
    10  C    0.000011  -0.002912  -0.000011  -0.011907  -0.001326  -0.108286
    11  H    0.000001   0.000090   0.000004  -0.001326  -0.041250   0.002362
    12  C    0.000846  -0.005759  -0.000046  -0.108286   0.002362  -0.126995
    13  H    0.000087   0.000168  -0.000006   0.003260   0.000357  -0.003364
    14  C    0.000098   0.004957   0.000932   0.061928   0.010740   0.015515
    15  H    0.000003  -0.001090  -0.000486   0.004054   0.000821  -0.001224
    16  C   -0.006175   0.108422  -0.012054   0.011206  -0.001596   0.030209
    17  N    0.000005   0.010509  -0.000274   0.011674  -0.000597   0.064734
    18  B    0.051842  -0.000005   0.000000   0.000634  -0.000054   0.002873
    19  F   -0.000161   0.000001   0.000000   0.000002  -0.000001   0.001391
    20  F   -0.000162  -0.000001   0.000000   0.000002  -0.000001   0.001392
    21  H    0.000533   0.001084   0.000471   0.000000   0.000000   0.000000
              13         14         15         16         17         18
     1  C   -0.000001   0.000000   0.000002   0.000580  -0.000100  -0.000866
     2  C    0.000018  -0.000582   0.000036   0.000027   0.006172   0.004394
     3  C    0.000000  -0.000008   0.000000  -0.000358  -0.000010  -0.000636
     4  H    0.000000   0.000000   0.000000   0.000001  -0.000001   0.000054
     5  C   -0.000001  -0.000037   0.000000   0.001064  -0.000849  -0.002872
     6  H    0.000000   0.000001   0.000000  -0.000018  -0.000088   0.000162
     7  N    0.000087   0.000098   0.000003  -0.006175   0.000005   0.051842
     8  C    0.000168   0.004957  -0.001090   0.108422   0.010509  -0.000005
     9  H   -0.000006   0.000932  -0.000486  -0.012054  -0.000274   0.000000
    10  C    0.003260   0.061928   0.004054   0.011206   0.011674   0.000634
    11  H    0.000357   0.010740   0.000821  -0.001596  -0.000597  -0.000054
    12  C   -0.003364   0.015515  -0.001224   0.030209   0.064734   0.002873
    13  H   -0.052609  -0.000900   0.000111  -0.001153   0.007814  -0.000160
    14  C   -0.000900  -0.064112  -0.001556  -0.083481   0.001034   0.000873
    15  H    0.000111  -0.001556  -0.043099   0.011549  -0.000529   0.000000
    16  C   -0.001153  -0.083481   0.011549  -0.025776  -0.050713  -0.004408
    17  N    0.007814   0.001034  -0.000529  -0.050713  -0.029088  -0.051836
    18  B   -0.000160   0.000873   0.000000  -0.004408  -0.051836   0.000009
    19  F    0.000182   0.000000  -0.000001   0.000707   0.000158  -0.000002
    20  F    0.000182   0.000000  -0.000001   0.000708   0.000158   0.000000
    21  H    0.000000  -0.000002   0.000000  -0.000040  -0.000004  -0.000001
              19         20         21
     1  C    0.000000   0.000000   0.001487
     2  C   -0.000711  -0.000709  -0.011437
     3  C   -0.000001  -0.000002  -0.004096
     4  H    0.000001   0.000001  -0.000814
     5  C   -0.001392  -0.001392   0.001223
     6  H   -0.000183  -0.000182  -0.000112
     7  N   -0.000161  -0.000162   0.000533
     8  C    0.000001  -0.000001   0.001084
     9  H    0.000000   0.000000   0.000471
    10  C    0.000002   0.000002   0.000000
    11  H   -0.000001  -0.000001   0.000000
    12  C    0.001391   0.001392   0.000000
    13  H    0.000182   0.000182   0.000000
    14  C    0.000000   0.000000  -0.000002
    15  H   -0.000001  -0.000001   0.000000
    16  C    0.000707   0.000708  -0.000040
    17  N    0.000158   0.000158  -0.000004
    18  B   -0.000002   0.000000  -0.000001
    19  F    0.000019   0.000000   0.000001
    20  F    0.000000   0.000013   0.000001
    21  H    0.000001   0.000001   0.042489
 Mulliken charges:
               1
     1  C    5.944694
     2  C    5.978778
     3  C    5.968799
     4  H    0.969519
     5  C    5.872537
     6  H    0.953956
     7  N    6.968162
     8  C    6.000068
     9  H    1.000003
    10  C    6.031312
    11  H    1.030448
    12  C    6.127374
    13  H    1.046014
    14  C    6.054600
    15  H    1.031408
    16  C    6.021299
    17  N    7.031829
    18  B    4.999999
    19  F    8.999991
    20  F    8.999992
    21  H    0.969217
 Sum of Mulliken charges =  98.00000
 Mulliken charges with hydrogens summed into heavy atoms:
               1
     1  C    6.913911
     2  C    5.978778
     3  C    6.938317
     5  C    6.826494
     7  N    6.968162
     8  C    7.000071
    10  C    7.061760
    12  C    7.173388
    14  C    7.086008
    16  C    6.021299
    17  N    7.031829
    18  B    4.999999
    19  F    8.999991
    20  F    8.999992
 Electronic spatial extent (au):  <R**2>=            -24.1000
 Charge=              0.0000 electrons
 Dipole moment (field-independent basis, Debye):
    X=              4.4209    Y=              6.2591    Z=              5.0785  Tot=              9.1930
 Quadrupole moment (field-independent basis, Debye-Ang):
   XX=             -0.4404   YY=             -0.0602   ZZ=             32.9160
   XY=             -0.3354   XZ=             14.0590   YZ=             20.2515
 Traceless Quadrupole moment (field-independent basis, Debye-Ang):
   XX=            -11.2456   YY=            -10.8653   ZZ=             22.1109
   XY=             -0.3354   XZ=             14.0590   YZ=             20.2515
 Octapole moment (field-independent basis, Debye-Ang**2):
  XXX=             24.9141  YYY=             40.9414  ZZZ=            193.9819  XYY=             20.9926
  XXY=             19.7766  XXZ=             10.5912  XZZ=             57.4349  YZZ=             87.7752
  YYZ=             21.0854  XYZ=              8.8839
 Hexadecapole moment (field-independent basis, Debye-Ang**3):
 XXXX=              1.7724 YYYY=             -0.5308 ZZZZ=           1116.3933 XXXY=              1.0889
 XXXZ=             74.4102 YYYX=             -1.5433 YYYZ=            131.5590 ZZZX=            269.9604
 ZZZY=            426.0777 XXYY=             -0.2393 XXZZ=             72.4535 YYZZ=            138.8387
 XXYZ=             59.2839 YYXZ=             64.8869 ZZXY=             62.8885
 N-N= 8.597430389254D+02 E-N=-2.181467032216D-03  KE= 5.618043638784D-05
 Leave Link  601 at Tue Mar  1 10:30:53 2016, MaxMem=  2621440000 cpu:         0.8
 (Enter /cm/shared/apps/gaussian/g09D01/g09/l9999.exe)

 Test job not archived.
 1\1\GINC-NODE10\SP\RCAM-B3LYP TD-FC\CC-pVTZ\C9H7B1F2N2\DPADULA\01-Mar-
 2016\0\\#p td=(nstates=1) cam-b3lyp cc-pVTZ nosymm density(transition=
 1) IOp(9/40=5)\\bodipy_monomer_camccpvtz\\0,1\C,0,-0.3374861,-1.447617
 68,0.65293808\C,0,0.01309972,-0.6292238,1.75700922\C,0,-1.41587936,-2.
 2238367,1.04881524\H,0,-1.94537881,-2.96149584,0.46671979\C,0,-1.70469
 983,-1.86777289,2.38305916\H,0,-2.4739907,-2.25092205,3.03696658\N,0,-
 0.85710919,-0.92101213,2.80513566\C,0,1.00993822,0.32651034,1.90987709
 \H,0,1.67310193,0.53372266,1.07812794\C,0,1.83111519,2.37547091,4.7835
 0153\H,0,2.33821107,3.10612983,5.39369585\C,0,0.73377992,1.58628849,5.
 18779343\H,0,0.22313683,1.56950912,6.13919699\C,0,2.11375569,2.0245208
 9,3.47235122\H,0,2.89014384,2.42201826,2.83596109\C,0,1.18021809,1.023
 97774,3.0994263\N,0,0.3460277,0.78320897,4.18898118\B,0,-0.83438895,-0
 .24976865,4.22305789\F,0,-2.03808019,0.40980547,4.45729299\F,0,-0.5977
 7689,-1.21151662,5.20174696\H,0,0.15382019,-1.44761768,-0.29759762\\Ve
 rsion=ES64L-G09RevD.01\HF=-681.319096\RMSD=4.831e-09\PG=CS [SG(C9H7B1N
 2),X(F2)]\\@


 THERE IS NOTHING NOBLE IN BEING SUPERIOR TO SOME OTHER MAN.
 TRUE NOBILITY IS BEING SUPERIOR TO YOUR FORMER SELF.

                                                   -- HINDU PROVERB
 Job cpu time:       0 days  2 hours 47 minutes 58.5 seconds.
 File lengths (MBytes):  RWF=    223 Int=      0 D2E=      0 Chk=     23 Scr=      1
 Normal termination of Gaussian 09 at Tue Mar  1 10:30:54 2016.
