 Entering Gaussian System, Link 0=gdv
 Input=temp.com
 Output=temp.log
 Initial command:
 /home/software/gaussian/gdvH23/gdv/l1.exe "/home/dpadula/gauscr/Gau-22385.inp" -scrdir="/home/dpadula/gauscr/"
 Entering Link 1 = /home/software/gaussian/gdvH23/gdv/l1.exe PID=     22387.
  
 Copyright (c) 1988,1990,1992,1993,1995,1998,2003,2009,2012,
            Gaussian, Inc.  All Rights Reserved.
  
 This is the private, development version of
 the Gaussian(R) DV system of programs. It is based on
 the Gaussian(R) 09 system (copyright 2009, Gaussian, Inc.),
 the Gaussian(R) 03 system (copyright 2003, Gaussian, Inc.),
 the Gaussian(R) 98 system (copyright 1998, Gaussian, Inc.),
 the Gaussian(R) 94 system (copyright 1995, Gaussian, Inc.),
 the Gaussian 92(TM) system (copyright 1992, Gaussian, Inc.),
 the Gaussian 90(TM) system (copyright 1990, Gaussian, Inc.),
 the Gaussian 88(TM) system (copyright 1988, Gaussian, Inc.),
 the Gaussian 86(TM) system (copyright 1986, Carnegie Mellon
 University), and the Gaussian 82(TM) system (copyright 1983,
 Carnegie Mellon University). Gaussian is a federally registered
 trademark of Gaussian, Inc.
  
 This software contains proprietary and confidential information,
 including trade secrets, belonging to Gaussian, Inc.
  
 This software is provided under written license and may be
 used, copied, transmitted, or stored only in accord with that
 written license.
  
 The following legend is applicable only to US Government
 contracts under FAR:
  
                    RESTRICTED RIGHTS LEGEND
  
 Use, reproduction and disclosure by the US Government is
 subject to restrictions as set forth in subparagraphs (a)
 and (c) of the Commercial Computer Software - Restricted
 Rights clause in FAR 52.227-19.
  
 Gaussian, Inc.
 340 Quinnipiac St., Bldg. 40, Wallingford CT 06492
  
  
 ---------------------------------------------------------------
 Warning -- This program may not be used in any manner that
 competes with the business of Gaussian, Inc. or will provide
 assistance to any competitor of Gaussian, Inc.  The licensee
 of this program is prohibited from giving any competitor of
 Gaussian, Inc. access to this program.  By using this program,
 the user acknowledges that Gaussian, Inc. is engaged in the
 business of creating and licensing software in the field of
 computational chemistry and represents and warrants to the
 licensee that it is not a competitor of Gaussian, Inc. and that
 it will not use this program in any manner prohibited above.
 ---------------------------------------------------------------
  

 Cite this work as:
 Gaussian Development Version, Revision H.23,
 M. J. Frisch, G. W. Trucks, H. B. Schlegel, G. E. Scuseria, 
 M. A. Robb, J. R. Cheeseman, G. Scalmani, V. Barone, B. Mennucci, 
 G. A. Petersson, H. Nakatsuji, M. Caricato, X. Li, H. P. Hratchian, 
 A. F. Izmaylov, J. Bloino, G. Zheng, J. L. Sonnenberg, W. Liang, 
 M. Hada, M. Ehara, K. Toyota, R. Fukuda, J. Hasegawa, M. Ishida, 
 T. Nakajima, Y. Honda, O. Kitao, H. Nakai, T. Vreven, 
 J. A. Montgomery, Jr., J. E. Peralta, F. Ogliaro, M. Bearpark, 
 J. J. Heyd, E. Brothers, K. N. Kudin, V. N. Staroverov, T. Keith, 
 R. Kobayashi, J. Normand, K. Raghavachari, A. Rendell, J. C. Burant, 
 S. S. Iyengar, J. Tomasi, M. Cossi, N. Rega, J. M. Millam, M. Klene, 
 J. E. Knox, J. B. Cross, V. Bakken, C. Adamo, J. Jaramillo, 
 R. Gomperts, R. E. Stratmann, O. Yazyev, A. J. Austin, R. Cammi, 
 C. Pomelli, J. W. Ochterski, R. L. Martin, K. Morokuma, 
 V. G. Zakrzewski, G. A. Voth, P. Salvador, J. J. Dannenberg, 
 S. Dapprich, P. V. Parandekar, N. J. Mayhall, A. D. Daniels, 
 O. Farkas, J. B. Foresman, J. V. Ortiz, J. Cioslowski, 
 and D. J. Fox, Gaussian, Inc., Wallingford CT, 2010.
 
 ******************************************
 Gaussian DV:  ES64L-GDVRevH.23 23-Jul-2012
                 3-Mar-2016 
 ******************************************
 %nprocshared=2
 Will use up to    2 processors via shared memory.
 %mem=500MB
 %chk=temp.chk
 ----------------------------------------------------------------------
 #p td=(nstates=1) cam-b3lyp nosymm density=transition=1 iop(9/40=5) sv
 p
 ----------------------------------------------------------------------
 1/38=1/1;
 2/12=2,15=1,17=6,18=5,40=1/2;
 3/5=18,7=101,11=9,16=1,25=1,30=1,74=-40/1,2,8,3;
 4//1;
 5/5=2,38=5/2;
 8/6=1,10=1,108=1/1;
 9/40=5,41=1,42=1,70=2/14;
 6/7=2,8=2,9=2,10=2,29=1/1;
 99/5=1,9=1/99;
 Leave Link    1 at Thu Mar  3 17:44:55 2016, MaxMem=   65536000 cpu:       0.1
 (Enter /home/software/gaussian/gdvH23/gdv/l101.exe)
 -----
 Title
 -----
 Symbolic Z-matrix:
 Charge =  0 Multiplicity = 1
 C                     0.        5.14211   0.13077 
 C                     0.        4.61911   1.39163 
 H                     0.        5.22791   2.29584 
 C                     0.        3.1964    1.39193 
 H                     0.        2.58953   2.29811 
 C                     0.        2.65514   0.12852 
 S                     0.        3.91163  -1.07001 
 C                     0.        1.25333  -0.25936 
 C                     0.        0.70897  -1.52051 
 H                     0.        1.31295  -2.42843 
 C                     0.       -0.70897  -1.52051 
 H                     0.       -1.31295  -2.42843 
 C                     0.       -1.25333  -0.25936 
 S                     0.        0.        0.94229 
 C                     0.       -2.65514   0.12852 
 C                     0.       -3.1964    1.39193 
 H                     0.       -2.58953   2.29811 
 C                     0.       -4.61911   1.39163 
 H                     0.       -5.22791   2.29584 
 C                     0.       -5.14211   0.13077 
 H                     0.       -6.1905   -0.16168 
 S                     0.       -3.91163  -1.07001 
 H                     0.        6.1905   -0.16168 
 
 NAtoms=     23 NQM=        0 NQMF=       0 NMMI=     23 NMMIF=      0
                NMic=       0 NMicF=      0.
                    Isotopes and Nuclear Properties:
 (Nuclear quadrupole moments (NQMom) in fm**2, nuclear magnetic moments (NMagM)
  in nuclear magnetons)

  Atom         1           2           3           4           5           6           7           8           9          10
 IAtWgt=          12          12           1          12           1          12          32          12          12           1
 AtmWgt=  12.0000000  12.0000000   1.0078250  12.0000000   1.0078250  12.0000000  31.9720718  12.0000000  12.0000000   1.0078250
 NucSpn=           0           0           1           0           1           0           0           0           0           1
 AtZEff=   0.0000000   0.0000000   0.0000000   0.0000000   0.0000000   0.0000000   0.0000000   0.0000000   0.0000000   0.0000000
 NQMom=    0.0000000   0.0000000   0.0000000   0.0000000   0.0000000   0.0000000   0.0000000   0.0000000   0.0000000   0.0000000
 NMagM=    0.0000000   0.0000000   2.7928460   0.0000000   2.7928460   0.0000000   0.0000000   0.0000000   0.0000000   2.7928460
 AtZNuc=   6.0000000   6.0000000   1.0000000   6.0000000   1.0000000   6.0000000  16.0000000   6.0000000   6.0000000   1.0000000

  Atom        11          12          13          14          15          16          17          18          19          20
 IAtWgt=          12           1          12          32          12          12           1          12           1          12
 AtmWgt=  12.0000000   1.0078250  12.0000000  31.9720718  12.0000000  12.0000000   1.0078250  12.0000000   1.0078250  12.0000000
 NucSpn=           0           1           0           0           0           0           1           0           1           0
 AtZEff=   0.0000000   0.0000000   0.0000000   0.0000000   0.0000000   0.0000000   0.0000000   0.0000000   0.0000000   0.0000000
 NQMom=    0.0000000   0.0000000   0.0000000   0.0000000   0.0000000   0.0000000   0.0000000   0.0000000   0.0000000   0.0000000
 NMagM=    0.0000000   2.7928460   0.0000000   0.0000000   0.0000000   0.0000000   2.7928460   0.0000000   2.7928460   0.0000000
 AtZNuc=   6.0000000   1.0000000   6.0000000  16.0000000   6.0000000   6.0000000   1.0000000   6.0000000   1.0000000   6.0000000

  Atom        21          22          23
 IAtWgt=           1          32           1
 AtmWgt=   1.0078250  31.9720718   1.0078250
 NucSpn=           1           0           1
 AtZEff=   0.0000000   0.0000000   0.0000000
 NQMom=    0.0000000   0.0000000   0.0000000
 NMagM=    2.7928460   0.0000000   2.7928460
 AtZNuc=   1.0000000  16.0000000   1.0000000
 Leave Link  101 at Thu Mar  3 17:44:55 2016, MaxMem=   65536000 cpu:       0.1
 (Enter /home/software/gaussian/gdvH23/gdv/l202.exe)
                          Input orientation:                          
 ---------------------------------------------------------------------
 Center     Atomic      Atomic             Coordinates (Angstroms)
 Number     Number       Type             X           Y           Z
 ---------------------------------------------------------------------
      1          6           0        0.000000    5.142111    0.130773
      2          6           0        0.000000    4.619111    1.391633
      3          1           0        0.000000    5.227910    2.295844
      4          6           0        0.000000    3.196401    1.391927
      5          1           0        0.000000    2.589532    2.298106
      6          6           0        0.000000    2.655142    0.128524
      7         16           0        0.000000    3.911631   -1.070006
      8          6           0        0.000000    1.253330   -0.259361
      9          6           0        0.000000    0.708967   -1.520510
     10          1           0        0.000000    1.312950   -2.428428
     11          6           0        0.000000   -0.708967   -1.520510
     12          1           0        0.000000   -1.312950   -2.428428
     13          6           0        0.000000   -1.253330   -0.259361
     14         16           0        0.000000    0.000000    0.942292
     15          6           0        0.000000   -2.655142    0.128524
     16          6           0        0.000000   -3.196401    1.391927
     17          1           0        0.000000   -2.589532    2.298106
     18          6           0        0.000000   -4.619111    1.391633
     19          1           0        0.000000   -5.227910    2.295844
     20          6           0        0.000000   -5.142111    0.130773
     21          1           0        0.000000   -6.190497   -0.161680
     22         16           0        0.000000   -3.911631   -1.070006
     23          1           0        0.000000    6.190497   -0.161680
 ---------------------------------------------------------------------
                    Distance matrix (angstroms):
                    1          2          3          4          5
     1  C    0.000000
     2  C    1.365026   0.000000
     3  H    2.166770   1.090061   0.000000
     4  C    2.318684   1.422710   2.223532   0.000000
     5  H    3.348581   2.222810   2.638379   1.090619   0.000000
     6  C    2.486970   2.335084   3.363987   1.374463   2.170574
     7  S    1.719288   2.561288   3.614075   2.563722   3.618304
     8  C    3.908302   3.748902   4.725078   2.549956   2.885494
     9  C    4.730698   4.875428   5.914846   3.830094   4.256566
    10  H    4.605647   5.052085   6.135606   4.259401   4.895895
    11  C    6.079626   6.071984   7.057696   4.871775   5.045981
    12  H    6.943869   7.055651   8.068556   5.910106   6.129396
    13  C    6.407329   6.100110   6.966746   4.746247   4.616083
    14  S    5.205753   4.640915   5.400291   3.227871   2.922996
    15  C    7.797253   7.383102   8.175560   5.986380   5.675711
    16  C    8.433344   7.815512   8.472667   6.392802   5.856465
    17  H    8.029672   7.265413   7.817442   5.856465   5.179064
    18  C    9.842318   9.238222   9.888449   7.815512   7.265413
    19  H   10.593624   9.888449  10.455820   8.472667   7.817442
    20  C   10.284222   9.842318  10.593624   8.433344   8.029672
    21  H   11.336381  10.920641  11.679873   9.514597   9.118084
    22  S    9.133023   8.878808   9.739618   7.522316   7.321837
    23  H    1.088413   2.209533   2.639318   3.373174   4.360905
                    6          7          8          9         10
     6  C    0.000000
     7  S    1.736444   0.000000
     8  C    1.454487   2.779156   0.000000
     9  C    2.550865   3.234194   1.373619   0.000000
    10  H    2.887816   2.932312   2.169886   1.090463   0.000000
    11  C    3.746537   4.642508   2.332618   1.417934   2.216408
    12  H    4.720568   5.398292   3.360155   2.216408   2.625900
    13  C    3.927672   5.228190   2.506660   2.332618   3.360155
    14  S    2.777048   4.398886   1.736320   2.562816   3.617401
    15  C    5.310284   6.675251   3.927672   3.746537   4.720568
    16  C    5.986380   7.522316   4.746247   4.871775   5.910106
    17  H    5.675711   7.321837   4.616083   5.045981   6.129396
    18  C    7.383102   8.878808   6.100110   6.071984   7.055651
    19  H    8.175560   9.739618   6.966746   7.057696   8.068556
    20  C    7.797253   9.133023   6.407329   6.079626   6.943869
    21  H    8.850398  10.142882   7.444468   7.032000   7.838358
    22  S    6.675251   7.823262   5.228190   4.642508   5.398292
    23  H    3.547246   2.453220   4.938133   5.647441   5.378532
                   11         12         13         14         15
    11  C    0.000000
    12  H    1.090463   0.000000
    13  C    1.373619   2.169886   0.000000
    14  S    2.562816   3.617401   1.736320   0.000000
    15  C    2.550865   2.887816   1.454487   2.777048   0.000000
    16  C    3.830094   4.259401   2.549956   3.227871   1.374463
    17  H    4.256566   4.895895   2.885494   2.922996   2.170574
    18  C    4.875428   5.052085   3.748902   4.640915   2.335084
    19  H    5.914846   6.135606   4.725078   5.400291   3.363987
    20  C    4.730698   4.605647   3.908302   5.205753   2.486970
    21  H    5.647441   5.378532   4.938133   6.288164   3.547246
    22  S    3.234194   2.932312   2.779156   4.398886   1.736444
    23  H    7.032000   7.838358   7.444468   6.288164   8.850398
                   16         17         18         19         20
    16  C    0.000000
    17  H    1.090619   0.000000
    18  C    1.422710   2.222810   0.000000
    19  H    2.223532   2.638379   1.090061   0.000000
    20  C    2.318684   3.348581   1.365026   2.166770   0.000000
    21  H    3.373174   4.360905   2.209533   2.639318   1.088413
    22  S    2.563722   3.618304   2.561288   3.614075   1.719288
    23  H    9.514597   9.118084  10.920641  11.679873  11.336381
                   21         22         23
    21  H    0.000000
    22  S    2.453220   0.000000
    23  H   12.380994  10.142882   0.000000
 Symmetry turned off by external request.
 Stoichiometry    C12H8S3
 Framework group  C2V[C2(S),SGV(C12H8S2)]
 Deg. of freedom    22
 Full point group                 C2V     NOp   4
 Rotational constants (GHZ):      1.7693369      0.1845425      0.1671126
 Leave Link  202 at Thu Mar  3 17:44:55 2016, MaxMem=   65536000 cpu:       0.0
 (Enter /home/software/gaussian/gdvH23/gdv/l301.exe)
 Standard basis: SVP (5D, 7F)
 Ernie: Thresh=  0.10000D-02 Tol=  0.10000D-05 Strict=F.
   262 basis functions,   467 primitive gaussians,   277 cartesian basis functions
    64 alpha electrons       64 beta electrons
       nuclear repulsion energy      1179.3782758297 Hartrees.
 IExCor=20419 DFT=T Ex+Corr=CAM-B3LYP ExCW=0 ScaHFX=  1.000000
 ScaDFX=  1.000000  1.000000  1.000000  0.810000 ScalE2=  1.000000  1.000000
 IRadAn=      0 IRanWt=     -1 IRanGd=            0 ICorTp=0 IEmpDi=  4
  HFx wShort=  0.000000 wLong=  0.330000 cFull=  0.190000 cShort=  0.000000 cLong=  0.460000
  DFx wShort=  0.000000 wLong=  0.330000 cFull=  0.190000 cShort=  0.000000 cLong=  0.460000
 Exchange functional CAM-B3LYP number202 past maximum of 46 in XCCkDr.
 NAtoms=   23 NActive=   23 NUniq=   23 SFac= 1.00D+00 NAtFMM=   60 NAOKFM=F Big=F
 Integral buffers will be    131072 words long.
 Raffenetti 1 integral format.
 Two-electron integral symmetry is turned off.
 Leave Link  301 at Thu Mar  3 17:44:55 2016, MaxMem=   65536000 cpu:       0.1
 (Enter /home/software/gaussian/gdvH23/gdv/l302.exe)
 NPDir=0 NMtPBC=     1 NCelOv=     1 NCel=       1 NClECP=     1 NCelD=      1
         NCelK=      1 NCelE2=     1 NClLst=     1 CellRange=     0.0.
 One-electron integrals computed using PRISM.
 NBasis=   262 RedAO= T EigKep=  4.58D-04  NBF=   262
 NBsUse=   262 1.00D-06 EigRej= -1.00D+00 NBFU=   262
 Precomputing XC quadrature grid using
 IXCGrd= 4 IRadAn=           0 IRanWt=          -1 IRanGd=           0 AccXCQ= 0.00D+00.
 Generated NRdTot=       0 NPtTot=           0 NUsed=           0 NTot=          32
 NSgBfM=   270   270   270   270   270 NAtAll=    23    23.
 Leave Link  302 at Thu Mar  3 17:44:56 2016, MaxMem=   65536000 cpu:       0.5
 (Enter /home/software/gaussian/gdvH23/gdv/l308.exe)
 Leave Link  308 at Thu Mar  3 17:44:56 2016, MaxMem=   65536000 cpu:       0.1
 (Enter /home/software/gaussian/gdvH23/gdv/l303.exe)
 DipDrv:  MaxL=1.
 Leave Link  303 at Thu Mar  3 17:44:56 2016, MaxMem=   65536000 cpu:       0.0
 (Enter /home/software/gaussian/gdvH23/gdv/l401.exe)
 ExpMin= 1.22D-01 ExpMax= 9.18D+03 ExpMxC= 1.38D+03 IAcc=1 IRadAn=         1 AccDes= 0.00D+00
 Harris functional with IExCor=20419 and IRadAn=       1 diagonalized for initial guess.
 HarFok:  IExCor=20419 AccDes= 0.00D+00 IRadAn=         1 IDoV= 1 UseB2=F ITyADJ=14
 ICtDFT=  3500011 ScaDFX=  1.000000  1.000000  1.000000  1.000000
 FoFCou: FMM=F IPFlag=           0 FMFlag=      100000 FMFlg1=           0
         NFxFlg=           0 DoJE=T BraDBF=F KetDBF=T FulRan=T
         wScrn=  0.000000 ICntrl=     500 IOpCl=  0 I1Cent=   200000004 NGrid=           0
         NMat0=    1 NMatS0=      1 NMatT0=    0 NMatD0=    1 NMtDS0=    0 NMtDT0=    0
 Symmetry not used in FoFCou.
 Harris En= -1618.50445940797    
 JPrj=0 DoOrth=F DoCkMO=F.
 Leave Link  401 at Thu Mar  3 17:44:57 2016, MaxMem=   65536000 cpu:       1.5
 (Enter /home/software/gaussian/gdvH23/gdv/l502.exe)
 Closed shell SCF:
 Using DIIS extrapolation, IDIIS=  1040.
 Two-electron integral symmetry not used.
 IVT=      252107 IEndB=      252107 NGot=    65536000 MDV=    65377540
 LenX=    65377540 LenY=    65300370
 Requested convergence on RMS density matrix=1.00D-08 within 128 cycles.
 Requested convergence on MAX density matrix=1.00D-06.
 Requested convergence on             energy=1.00D-06.
 No special actions if energy rises.
 Fock matrices will be formed incrementally for  20 cycles.
 Integral accuracy reduced to 1.0D-05 until final iterations.

 Cycle   1  Pass 0  IDiag  1:
 FoFJK:  IHMeth= 1 ICntrl=       0 DoSepK=T KAlg= 0 I1Cent=   0 FoldK=F
 IRaf=         1 NMat=   1 IRICut=       1 DoRegI=T DoRafI=F ISym2E= 0.
 FoFCou: FMM=F IPFlag=           0 FMFlag=      100000 FMFlg1=           0
         NFxFlg=           0 DoJE=T BraDBF=F KetDBF=F FulRan=T
         wScrn=  0.000000 ICntrl=     500 IOpCl=  0 I1Cent=           0 NGrid=           0
         NMat0=    1 NMatS0=      1 NMatT0=    0 NMatD0=    1 NMtDS0=    0 NMtDT0=    0
 Symmetry not used in FoFCou.
 E= -1655.23384023378    
 DIIS: error= 4.64D-02 at cycle   1 NSaved=   1.
 NSaved= 1 IEnMin= 1 EnMin= -1655.23384023378     IErMin= 1 ErrMin= 4.64D-02
 ErrMax= 4.64D-02  0.00D+00 EMaxC= 1.00D-01 BMatC= 6.57D-01 BMatP= 6.57D-01
 IDIUse=3 WtCom= 5.36D-01 WtEn= 4.64D-01
 Coeff-Com:  0.100D+01
 Coeff-En:   0.100D+01
 Coeff:      0.100D+01
 Gap=     0.184 Goal=   None    Shift=    0.000
 GapD=    0.184 DampG=1.000 DampE=0.500 DampFc=0.5000 IDamp=-1.
 Damping current iteration by 5.00D-01
 RMSDP=6.85D-03 MaxDP=2.94D-01              OVMax= 3.26D-01

 Cycle   2  Pass 0  IDiag  1:
 RMSU=  3.41D-03    CP:  9.88D-01
 E= -1655.45094784236     Delta-E=       -0.217107608579 Rises=F Damp=T
 DIIS: error= 1.21D-02 at cycle   2 NSaved=   2.
 NSaved= 2 IEnMin= 2 EnMin= -1655.45094784236     IErMin= 2 ErrMin= 1.21D-02
 ErrMax= 1.21D-02  0.00D+00 EMaxC= 1.00D-01 BMatC= 7.03D-02 BMatP= 6.57D-01
 IDIUse=3 WtCom= 8.79D-01 WtEn= 1.21D-01
 Coeff-Com: -0.132D+00 0.113D+01
 Coeff-En:   0.115D-02 0.999D+00
 Coeff:     -0.116D+00 0.112D+01
 Gap=     0.209 Goal=   None    Shift=    0.000
 RMSDP=1.95D-03 MaxDP=5.22D-02 DE=-2.17D-01 OVMax= 1.97D-01

 Cycle   3  Pass 0  IDiag  1:
 RMSU=  1.94D-03    CP:  9.80D-01  9.75D-01
 E= -1655.66839099773     Delta-E=       -0.217443155372 Rises=F Damp=F
 DIIS: error= 8.87D-03 at cycle   3 NSaved=   3.
 NSaved= 3 IEnMin= 3 EnMin= -1655.66839099773     IErMin= 3 ErrMin= 8.87D-03
 ErrMax= 8.87D-03  0.00D+00 EMaxC= 1.00D-01 BMatC= 1.92D-02 BMatP= 7.03D-02
 IDIUse=3 WtCom= 9.11D-01 WtEn= 8.87D-02
 Coeff-Com: -0.136D+00 0.395D+00 0.741D+00
 Coeff-En:   0.000D+00 0.000D+00 0.100D+01
 Coeff:     -0.124D+00 0.360D+00 0.764D+00
 Gap=     0.218 Goal=   None    Shift=    0.000
 RMSDP=8.53D-04 MaxDP=2.56D-02 DE=-2.17D-01 OVMax= 5.95D-02

 Cycle   4  Pass 0  IDiag  1:
 RMSU=  5.69D-04    CP:  9.76D-01  1.14D+00  8.60D-01
 E= -1655.68742530937     Delta-E=       -0.019034311646 Rises=F Damp=F
 DIIS: error= 3.60D-03 at cycle   4 NSaved=   4.
 NSaved= 4 IEnMin= 4 EnMin= -1655.68742530937     IErMin= 4 ErrMin= 3.60D-03
 ErrMax= 3.60D-03  0.00D+00 EMaxC= 1.00D-01 BMatC= 3.60D-03 BMatP= 1.92D-02
 IDIUse=3 WtCom= 9.64D-01 WtEn= 3.60D-02
 Coeff-Com: -0.509D-01 0.115D+00 0.392D+00 0.544D+00
 Coeff-En:   0.000D+00 0.000D+00 0.630D-01 0.937D+00
 Coeff:     -0.491D-01 0.111D+00 0.380D+00 0.558D+00
 Gap=     0.218 Goal=   None    Shift=    0.000
 RMSDP=2.86D-04 MaxDP=7.98D-03 DE=-1.90D-02 OVMax= 1.47D-02

 Cycle   5  Pass 0  IDiag  1:
 RMSU=  1.54D-04    CP:  9.76D-01  1.13D+00  9.35D-01  6.68D-01
 E= -1655.69105672560     Delta-E=       -0.003631416221 Rises=F Damp=F
 DIIS: error= 6.71D-04 at cycle   5 NSaved=   5.
 NSaved= 5 IEnMin= 5 EnMin= -1655.69105672560     IErMin= 5 ErrMin= 6.71D-04
 ErrMax= 6.71D-04  0.00D+00 EMaxC= 1.00D-01 BMatC= 1.70D-04 BMatP= 3.60D-03
 IDIUse=3 WtCom= 9.93D-01 WtEn= 6.71D-03
 Coeff-Com: -0.552D-02 0.587D-02 0.995D-01 0.242D+00 0.658D+00
 Coeff-En:   0.000D+00 0.000D+00 0.000D+00 0.000D+00 0.100D+01
 Coeff:     -0.548D-02 0.583D-02 0.988D-01 0.240D+00 0.661D+00
 Gap=     0.220 Goal=   None    Shift=    0.000
 RMSDP=8.11D-05 MaxDP=2.32D-03 DE=-3.63D-03 OVMax= 4.59D-03

 Cycle   6  Pass 0  IDiag  1:
 RMSU=  6.19D-05    CP:  9.76D-01  1.13D+00  9.43D-01  7.35D-01  7.97D-01
 E= -1655.69126926583     Delta-E=       -0.000212540238 Rises=F Damp=F
 DIIS: error= 3.43D-04 at cycle   6 NSaved=   6.
 NSaved= 6 IEnMin= 6 EnMin= -1655.69126926583     IErMin= 6 ErrMin= 3.43D-04
 ErrMax= 3.43D-04  0.00D+00 EMaxC= 1.00D-01 BMatC= 1.83D-05 BMatP= 1.70D-04
 IDIUse=3 WtCom= 9.97D-01 WtEn= 3.43D-03
 Coeff-Com:  0.960D-02-0.231D-01-0.344D-01-0.961D-02 0.223D+00 0.835D+00
 Coeff-En:   0.000D+00 0.000D+00 0.000D+00 0.000D+00 0.000D+00 0.100D+01
 Coeff:      0.957D-02-0.231D-01-0.343D-01-0.957D-02 0.222D+00 0.835D+00
 Gap=     0.220 Goal=   None    Shift=    0.000
 RMSDP=3.84D-05 MaxDP=1.45D-03 DE=-2.13D-04 OVMax= 3.23D-03

 Cycle   7  Pass 0  IDiag  1:
 RMSU=  2.32D-05    CP:  9.76D-01  1.13D+00  9.52D-01  7.48D-01  9.37D-01
                    CP:  1.07D+00
 E= -1655.69130164644     Delta-E=       -0.000032380603 Rises=F Damp=F
 DIIS: error= 1.11D-04 at cycle   7 NSaved=   7.
 NSaved= 7 IEnMin= 7 EnMin= -1655.69130164644     IErMin= 7 ErrMin= 1.11D-04
 ErrMax= 1.11D-04  0.00D+00 EMaxC= 1.00D-01 BMatC= 3.47D-06 BMatP= 1.83D-05
 IDIUse=3 WtCom= 9.99D-01 WtEn= 1.11D-03
 Coeff-Com:  0.513D-02-0.111D-01-0.264D-01-0.339D-01 0.190D-01 0.388D+00
 Coeff-Com:  0.660D+00
 Coeff-En:   0.000D+00 0.000D+00 0.000D+00 0.000D+00 0.000D+00 0.000D+00
 Coeff-En:   0.100D+01
 Coeff:      0.513D-02-0.111D-01-0.264D-01-0.339D-01 0.190D-01 0.387D+00
 Coeff:      0.660D+00
 Gap=     0.220 Goal=   None    Shift=    0.000
 RMSDP=1.32D-05 MaxDP=4.67D-04 DE=-3.24D-05 OVMax= 9.46D-04

 Cycle   8  Pass 0  IDiag  1:
 RMSU=  9.17D-06    CP:  9.76D-01  1.13D+00  9.53D-01  7.56D-01  9.55D-01
                    CP:  1.17D+00  9.54D-01
 E= -1655.69130671235     Delta-E=       -0.000005065912 Rises=F Damp=F
 DIIS: error= 4.21D-05 at cycle   8 NSaved=   8.
 NSaved= 8 IEnMin= 8 EnMin= -1655.69130671235     IErMin= 8 ErrMin= 4.21D-05
 ErrMax= 4.21D-05  0.00D+00 EMaxC= 1.00D-01 BMatC= 2.87D-07 BMatP= 3.47D-06
 IDIUse=1 WtCom= 1.00D+00 WtEn= 0.00D+00
 Coeff-Com: -0.392D-03 0.121D-02 0.700D-04-0.651D-02-0.320D-01-0.489D-01
 Coeff-Com:  0.185D+00 0.901D+00
 Coeff:     -0.392D-03 0.121D-02 0.700D-04-0.651D-02-0.320D-01-0.489D-01
 Coeff:      0.185D+00 0.901D+00
 Gap=     0.220 Goal=   None    Shift=    0.000
 RMSDP=5.59D-06 MaxDP=1.48D-04 DE=-5.07D-06 OVMax= 6.02D-04

 Initial convergence to 1.0D-05 achieved.  Increase integral accuracy.
 Cycle   9  Pass 1  IDiag  1:
 E= -1655.69108679278     Delta-E=        0.000219919565 Rises=F Damp=F
 DIIS: error= 6.33D-05 at cycle   1 NSaved=   1.
 NSaved= 1 IEnMin= 1 EnMin= -1655.69108679278     IErMin= 1 ErrMin= 6.33D-05
 ErrMax= 6.33D-05  0.00D+00 EMaxC= 1.00D-01 BMatC= 4.67D-07 BMatP= 4.67D-07
 IDIUse=1 WtCom= 1.00D+00 WtEn= 0.00D+00
 Coeff-Com:  0.100D+01
 Coeff:      0.100D+01
 Gap=     0.220 Goal=   None    Shift=    0.000
 RMSDP=5.59D-06 MaxDP=1.48D-04 DE= 2.20D-04 OVMax= 1.22D-04

 Cycle  10  Pass 1  IDiag  1:
 RMSU=  3.39D-05    CP:  1.00D+00
 E= -1655.69108726904     Delta-E=       -0.000000476261 Rises=F Damp=F
 DIIS: error= 7.95D-06 at cycle   2 NSaved=   2.
 NSaved= 2 IEnMin= 2 EnMin= -1655.69108726904     IErMin= 2 ErrMin= 7.95D-06
 ErrMax= 7.95D-06  0.00D+00 EMaxC= 1.00D-01 BMatC= 2.32D-08 BMatP= 4.67D-07
 IDIUse=1 WtCom= 1.00D+00 WtEn= 0.00D+00
 Coeff-Com:  0.466D-01 0.953D+00
 Coeff:      0.466D-01 0.953D+00
 Gap=     0.220 Goal=   None    Shift=    0.000
 RMSDP=2.13D-06 MaxDP=3.85D-05 DE=-4.76D-07 OVMax= 8.23D-05

 Cycle  11  Pass 1  IDiag  1:
 RMSU=  1.68D-06    CP:  1.00D+00  1.04D+00
 E= -1655.69108725943     Delta-E=        0.000000009613 Rises=F Damp=F
 DIIS: error= 1.00D-05 at cycle   3 NSaved=   3.
 NSaved= 3 IEnMin= 2 EnMin= -1655.69108726904     IErMin= 2 ErrMin= 7.95D-06
 ErrMax= 1.00D-05  0.00D+00 EMaxC= 1.00D-01 BMatC= 3.63D-08 BMatP= 2.32D-08
 IDIUse=1 WtCom= 1.00D+00 WtEn= 0.00D+00
 Coeff-Com: -0.199D-01 0.565D+00 0.455D+00
 Coeff:     -0.199D-01 0.565D+00 0.455D+00
 Gap=     0.220 Goal=   None    Shift=    0.000
 RMSDP=9.02D-07 MaxDP=2.57D-05 DE= 9.61D-09 OVMax= 5.23D-05

 Cycle  12  Pass 1  IDiag  1:
 RMSU=  4.16D-07    CP:  1.00D+00  1.04D+00  5.31D-01
 E= -1655.69108729965     Delta-E=       -0.000000040216 Rises=F Damp=F
 DIIS: error= 1.26D-06 at cycle   4 NSaved=   4.
 NSaved= 4 IEnMin= 4 EnMin= -1655.69108729965     IErMin= 4 ErrMin= 1.26D-06
 ErrMax= 1.26D-06  0.00D+00 EMaxC= 1.00D-01 BMatC= 3.91D-10 BMatP= 2.32D-08
 IDIUse=1 WtCom= 1.00D+00 WtEn= 0.00D+00
 Coeff-Com: -0.851D-02 0.173D+00 0.160D+00 0.675D+00
 Coeff:     -0.851D-02 0.173D+00 0.160D+00 0.675D+00
 Gap=     0.220 Goal=   None    Shift=    0.000
 RMSDP=1.23D-07 MaxDP=2.84D-06 DE=-4.02D-08 OVMax= 8.71D-06

 Cycle  13  Pass 1  IDiag  1:
 RMSU=  1.08D-07    CP:  1.00D+00  1.04D+00  5.57D-01  1.08D+00
 E= -1655.69108730028     Delta-E=       -0.000000000630 Rises=F Damp=F
 DIIS: error= 6.22D-07 at cycle   5 NSaved=   5.
 NSaved= 5 IEnMin= 5 EnMin= -1655.69108730028     IErMin= 5 ErrMin= 6.22D-07
 ErrMax= 6.22D-07  0.00D+00 EMaxC= 1.00D-01 BMatC= 6.63D-11 BMatP= 3.91D-10
 IDIUse=1 WtCom= 1.00D+00 WtEn= 0.00D+00
 Coeff-Com:  0.292D-02-0.106D+00-0.783D-01 0.191D+00 0.991D+00
 Coeff:      0.292D-02-0.106D+00-0.783D-01 0.191D+00 0.991D+00
 Gap=     0.220 Goal=   None    Shift=    0.000
 RMSDP=1.00D-07 MaxDP=3.19D-06 DE=-6.30D-10 OVMax= 1.09D-05

 Cycle  14  Pass 1  IDiag  1:
 RMSU=  5.87D-08    CP:  1.00D+00  1.04D+00  5.70D-01  1.26D+00  1.27D+00
 E= -1655.69108730055     Delta-E=       -0.000000000276 Rises=F Damp=F
 DIIS: error= 2.55D-07 at cycle   6 NSaved=   6.
 NSaved= 6 IEnMin= 6 EnMin= -1655.69108730055     IErMin= 6 ErrMin= 2.55D-07
 ErrMax= 2.55D-07  0.00D+00 EMaxC= 1.00D-01 BMatC= 6.57D-12 BMatP= 6.63D-11
 IDIUse=1 WtCom= 1.00D+00 WtEn= 0.00D+00
 Coeff-Com:  0.152D-02-0.417D-01-0.342D-01-0.344D-01 0.257D+00 0.852D+00
 Coeff:      0.152D-02-0.417D-01-0.342D-01-0.344D-01 0.257D+00 0.852D+00
 Gap=     0.220 Goal=   None    Shift=    0.000
 RMSDP=2.99D-08 MaxDP=8.84D-07 DE=-2.76D-10 OVMax= 2.42D-06

 Cycle  15  Pass 1  IDiag  1:
 RMSU=  1.66D-08    CP:  1.00D+00  1.04D+00  5.73D-01  1.29D+00  1.43D+00
                    CP:  1.17D+00
 E= -1655.69108730055     Delta-E=        0.000000000004 Rises=F Damp=F
 DIIS: error= 7.95D-08 at cycle   7 NSaved=   7.
 NSaved= 7 IEnMin= 6 EnMin= -1655.69108730055     IErMin= 7 ErrMin= 7.95D-08
 ErrMax= 7.95D-08  0.00D+00 EMaxC= 1.00D-01 BMatC= 1.82D-12 BMatP= 6.57D-12
 IDIUse=1 WtCom= 1.00D+00 WtEn= 0.00D+00
 Coeff-Com:  0.410D-03-0.853D-02-0.823D-02-0.419D-01 0.188D-01 0.422D+00
 Coeff-Com:  0.618D+00
 Coeff:      0.410D-03-0.853D-02-0.823D-02-0.419D-01 0.188D-01 0.422D+00
 Coeff:      0.618D+00
 Gap=     0.220 Goal=   None    Shift=    0.000
 RMSDP=8.79D-09 MaxDP=2.37D-07 DE= 4.09D-12 OVMax= 7.65D-07

 SCF Done:  E(RCAM-B3LYP) =  -1655.69108730     A.U. after   15 cycles
            NFock= 15  Conv=0.88D-08     -V/T= 2.0047
 KE= 1.647978973956D+03 PE=-6.264746856755D+03 EE= 1.781698519669D+03
 Leave Link  502 at Thu Mar  3 17:46:17 2016, MaxMem=   65536000 cpu:     161.4
 (Enter /home/software/gaussian/gdvH23/gdv/l801.exe)
 DoSCS=F DFT=T ScalE2(SS,OS)=  1.000000  1.000000
 ExpMin= 1.22D-01 ExpMax= 9.18D+03 ExpMxC= 1.38D+03 IAcc=3 IRadAn=         5 AccDes= 0.00D+00
 HarFok:  IExCor=  205 AccDes= 0.00D+00 IRadAn=         5 IDoV=-2 UseB2=F ITyADJ=14
 ICtDFT= 12500011 ScaDFX=  1.000000  1.000000  1.000000  1.000000
 Largest valence mixing into a core orbital is  7.70D-05
 Largest core mixing into a valence orbital is  5.75D-05
 Range of M.O.s used for correlation:    28   262
 NBasis=   262 NAE=    64 NBE=    64 NFC=    27 NFV=     0
 NROrb=    235 NOA=    37 NOB=    37 NVA=   198 NVB=   198

 **** Warning!!: The largest alpha MO coefficient is  0.10449582D+02

 Leave Link  801 at Thu Mar  3 17:46:18 2016, MaxMem=   65536000 cpu:       0.7
 (Enter /home/software/gaussian/gdvH23/gdv/l914.exe)
 RHF ground state
 Energy threshold for converged states is -1.000000D+20 au    -2.721D+21 ev.
 Energy threshold for initial guesses  is -1.000000D+20 au    -2.721D+21 ev.
 MDV=    65536000 DFT=T DoStab=F Mixed=T DoRPA=T DoScal=F NonHer=T
 Would need an additional          3506400000 words for in-memory AO integral storage.
 Making orbital integer symmetry assigments:
     8 initial guesses have been made.
 Convergence on wavefunction:    0.001000000000000
 Davidson Disk Diagonalization:  ConvIn= 1.00D-03 SkipCon=T Conv= 1.00D-03.
 Max sub-space:   200 roots to seek:     8 dimension of matrix:        14652
 Iteration     1 Dimension     8 NMult     0 NNew      8
 CISAX will form     8 AO SS matrices at one time.
 NMat=     8 NSing=     8 JSym2X= 0.
 FoFJK:  IHMeth= 1 ICntrl=       0 DoSepK=T KAlg= 0 I1Cent=   0 FoldK=F
 IRaf=         1 NMat=  16 IRICut=       1 DoRegI=T DoRafI=F ISym2E= 0.
 FoFCou: FMM=F IPFlag=           0 FMFlag=      100000 FMFlg1=           0
         NFxFlg=           0 DoJE=F BraDBF=F KetDBF=F FulRan=T
         wScrn=  0.000000 ICntrl=     500 IOpCl=  0 I1Cent=           0 NGrid=           0
         NMat0=    8 NMatS0=      8 NMatT0=    0 NMatD0=    8 NMtDS0=    0 NMtDT0=    0
 Symmetry not used in FoFCou.
 Excitation Energies [eV] at current iteration:
 Root      1 :     4.253239153676270
 Root      2 :     5.411105550584846
 Root      3 :     5.828172226968084
 Root      4 :     5.850866889910581
 Root      5 :     6.023351118380713
 Root      6 :     6.066664696588622
 Root      7 :     6.488047502900343
 Root      8 :     7.091462102503691
 Iteration     2 Dimension    12 NMult     8 NNew      4
 CISAX will form     4 AO SS matrices at one time.
 NMat=     4 NSing=     4 JSym2X= 0.
 Root      1 not converged, maximum delta is    0.077215904045758
 Excitation Energies [eV] at current iteration:
 Root      1 :     3.731287519223731   Change is   -0.521951634452538
 Root      2 :     4.964178627427512   Change is   -0.446926923157335
 Iteration     3 Dimension    16 NMult    12 NNew      4
 CISAX will form     4 AO SS matrices at one time.
 NMat=     4 NSing=     4 JSym2X= 0.
 Root      1 not converged, maximum delta is    0.013126153972215
 Excitation Energies [eV] at current iteration:
 Root      1 :     3.685742137087712   Change is   -0.045545382136020
 Root      2 :     4.894131299825994   Change is   -0.070047327601518
 Iteration     4 Dimension    20 NMult    16 NNew      4
 CISAX will form     4 AO SS matrices at one time.
 NMat=     4 NSing=     4 JSym2X= 0.
 Root      1 not converged, maximum delta is    0.008242939235158
 Excitation Energies [eV] at current iteration:
 Root      1 :     3.678203729705081   Change is   -0.007538407382631
 Root      2 :     4.876206476341624   Change is   -0.017924823484370
 Iteration     5 Dimension    24 NMult    20 NNew      4
 CISAX will form     4 AO SS matrices at one time.
 NMat=     4 NSing=     4 JSym2X= 0.
 Root      1 not converged, maximum delta is    0.002869803490179
 Excitation Energies [eV] at current iteration:
 Root      1 :     3.677462804449419   Change is   -0.000740925255662
 Root      2 :     4.873559766373250   Change is   -0.002646709968374
 Iteration     6 Dimension    28 NMult    24 NNew      4
 CISAX will form     4 AO SS matrices at one time.
 NMat=     4 NSing=     4 JSym2X= 0.
 Root      1 has converged.
 Excitation Energies [eV] at current iteration:
 Root      1 :     3.677410085603209   Change is   -0.000052718846210
 Root      2 :     4.872815516740824   Change is   -0.000744249632425
 Convergence achieved on expansion vectors.
 ***********************************************************************
 Excited states from <AA,BB:AA,BB> singles matrix:
 ***********************************************************************
 
 1PDM for each excited state written to RWF  633
 Ground to excited state transition densities written to RWF  633
 Ground to excited state transition electric dipole moments (Au):
       state          X           Y           Z        Dip. S.      Osc.
         1         0.0000      3.0037      0.0000      9.0221      0.8128
 Ground to excited state transition velocity dipole moments (Au):
       state          X           Y           Z        Dip. S.      Osc.
         1         0.0000     -0.4093      0.0000      0.1675      0.8262
 Ground to excited state transition magnetic dipole moments (Au):
       state          X           Y           Z
         1        -0.4212      0.0000      0.0000
 Ground to excited state transition velocity quadrupole moments (Au):
       state          XX          YY          ZZ          XY          XZ          YZ
         1         0.0000      0.0000      0.0000      0.0000      0.0000     -0.3062
 <0|del|b> * <b|rxdel|0> + <0|del|b> * <b|delr+rdel|0>
 Rotatory Strengths (R) in cgs (10**-40 erg-esu-cm/Gauss)
       state          XX          YY          ZZ    R(velocity)    E-M Angle
         1         0.0000      0.0000      0.0000      0.0000       90.00
 1/2[<0|r|b>*<b|rxdel|0> + (<0|rxdel|b>*<b|r|0>)*]
 Rotatory Strengths (R) in cgs (10**-40 erg-esu-cm/Gauss)
       state          XX          YY          ZZ     R(length)
         1         0.0000      0.0000      0.0000      0.0000
  1/2[<0|del|b>*<b|r|0> + (<0|r|b>*<b|del|0>)*] (Au)
       state          X           Y           Z        Dip. S.   Osc.(frdel)
         1         0.0000     -1.2293      0.0000      1.2293      0.8195

 Excitation energies and oscillator strengths:
 
 Excited state symmetry could not be determined.
 Excited State   1:      Singlet-?Sym    3.6774 eV  337.15 nm  f=0.8128  <S**2>=0.000
      28 -> 68        -0.00369
      28 -> 70         0.00185
      28 -> 73         0.00109
      28 -> 78         0.00063
      28 -> 80        -0.00011
      28 -> 82         0.00055
      28 -> 83         0.00003
      28 -> 86        -0.00246
      28 -> 88         0.00110
      28 -> 90        -0.00065
      28 -> 93         0.00057
      28 -> 95        -0.00002
      28 -> 97         0.00100
      28 ->100        -0.00179
      28 ->101        -0.00122
      28 ->103         0.00082
      28 ->105         0.00079
      28 ->109        -0.00013
      28 ->113         0.00086
      28 ->117         0.00106
      28 ->127        -0.00010
      28 ->131         0.00010
      28 ->132         0.00003
      28 ->134         0.00016
      28 ->137         0.00007
      28 ->138        -0.00048
      28 ->143        -0.00115
      28 ->144         0.00086
      28 ->147        -0.00042
      28 ->149         0.00083
      28 ->154         0.00063
      28 ->157        -0.00099
      28 ->159        -0.00078
      28 ->160         0.00069
      28 ->162         0.00076
      28 ->164         0.00026
      28 ->167        -0.00020
      28 ->169        -0.00003
      28 ->172         0.00013
      28 ->174        -0.00021
      28 ->180         0.00007
      28 ->183         0.00015
      28 ->185        -0.00007
      28 ->193         0.00001
      28 ->195        -0.00001
      28 ->198         0.00008
      28 ->206        -0.00007
      28 ->207        -0.00002
      28 ->212        -0.00008
      28 ->214        -0.00002
      28 ->219        -0.00008
      28 ->222        -0.00004
      28 ->224         0.00003
      28 ->226         0.00003
      28 ->227        -0.00002
      28 ->229        -0.00006
      28 ->234        -0.00006
      28 ->245         0.00005
      28 ->247        -0.00002
      28 ->249         0.00002
      28 ->251        -0.00003
      28 ->252        -0.00026
      28 ->255         0.00007
      28 ->256        -0.00005
      28 ->259        -0.00004
      28 ->260         0.00002
      28 ->262         0.00002
      29 -> 69        -0.00242
      29 -> 72        -0.00035
      29 -> 74        -0.00118
      29 -> 77         0.00099
      29 -> 79        -0.00030
      29 -> 81         0.00077
      29 -> 84         0.00078
      29 -> 85         0.00122
      29 -> 87         0.00172
      29 -> 89         0.00100
      29 -> 91         0.00120
      29 -> 92        -0.00046
      29 -> 94        -0.00031
      29 -> 96         0.00007
      29 -> 98        -0.00016
      29 -> 99         0.00019
      29 ->102         0.00042
      29 ->104        -0.00064
      29 ->106         0.00081
      29 ->111         0.00065
      29 ->114         0.00056
      29 ->121        -0.00058
      29 ->125        -0.00019
      29 ->128        -0.00007
      29 ->129        -0.00024
      29 ->135        -0.00018
      29 ->136        -0.00066
      29 ->139         0.00010
      29 ->142         0.00019
      29 ->145        -0.00105
      29 ->148        -0.00031
      29 ->151        -0.00126
      29 ->153         0.00046
      29 ->156        -0.00023
      29 ->158        -0.00049
      29 ->161         0.00047
      29 ->163         0.00004
      29 ->165        -0.00013
      29 ->166         0.00024
      29 ->168         0.00002
      29 ->173        -0.00008
      29 ->176        -0.00015
      29 ->177         0.00012
      29 ->190         0.00006
      29 ->194        -0.00003
      29 ->196         0.00005
      29 ->197        -0.00005
      29 ->201         0.00011
      29 ->204        -0.00007
      29 ->205         0.00010
      29 ->208        -0.00003
      29 ->210         0.00007
      29 ->215         0.00002
      29 ->218         0.00003
      29 ->223         0.00006
      29 ->225         0.00009
      29 ->228         0.00007
      29 ->230        -0.00004
      29 ->235         0.00009
      29 ->248         0.00004
      29 ->250         0.00021
      29 ->253         0.00003
      29 ->254         0.00003
      29 ->257        -0.00007
      29 ->258         0.00006
      29 ->261         0.00002
      30 -> 68        -0.00231
      30 -> 70        -0.00198
      30 -> 73         0.00100
      30 -> 78         0.00151
      30 -> 80         0.00162
      30 -> 82         0.00075
      30 -> 83        -0.00020
      30 -> 86        -0.00033
      30 -> 88         0.00075
      30 -> 90         0.00028
      30 -> 93         0.00082
      30 -> 95        -0.00154
      30 -> 97         0.00083
      30 ->100        -0.00048
      30 ->101         0.00015
      30 ->103         0.00008
      30 ->105        -0.00024
      30 ->109        -0.00085
      30 ->117         0.00070
      30 ->127         0.00036
      30 ->131         0.00039
      30 ->132         0.00045
      30 ->134        -0.00023
      30 ->137        -0.00022
      30 ->138        -0.00012
      30 ->143        -0.00119
      30 ->144         0.00067
      30 ->147         0.00181
      30 ->149         0.00129
      30 ->154         0.00027
      30 ->157        -0.00084
      30 ->159         0.00051
      30 ->160         0.00032
      30 ->162         0.00038
      30 ->164        -0.00006
      30 ->167        -0.00001
      30 ->174        -0.00004
      30 ->180         0.00021
      30 ->183         0.00019
      30 ->185         0.00002
      30 ->193         0.00006
      30 ->195        -0.00010
      30 ->198         0.00022
      30 ->202        -0.00015
      30 ->206         0.00007
      30 ->207        -0.00013
      30 ->222        -0.00018
      30 ->224         0.00013
      30 ->226         0.00003
      30 ->227         0.00002
      30 ->229        -0.00002
      30 ->234         0.00006
      30 ->238        -0.00007
      30 ->245        -0.00005
      30 ->247        -0.00018
      30 ->249        -0.00011
      30 ->251        -0.00014
      30 ->252        -0.00010
      30 ->255        -0.00001
      30 ->256        -0.00002
      30 ->259        -0.00012
      30 ->262        -0.00001
      31 -> 69         0.00020
      31 -> 72         0.00292
      31 -> 74        -0.00097
      31 -> 77        -0.00100
      31 -> 79         0.00089
      31 -> 81         0.00069
      31 -> 84        -0.00016
      31 -> 85         0.00334
      31 -> 87         0.00380
      31 -> 89         0.00161
      31 -> 91         0.00165
      31 -> 92        -0.00036
      31 -> 94         0.00201
      31 -> 96        -0.00111
      31 -> 98        -0.00004
      31 -> 99         0.00031
      31 ->102        -0.00075
      31 ->104        -0.00036
      31 ->106         0.00213
      31 ->111        -0.00025
      31 ->114        -0.00021
      31 ->121        -0.00013
      31 ->125         0.00012
      31 ->128         0.00057
      31 ->129        -0.00054
      31 ->135         0.00048
      31 ->136         0.00060
      31 ->139        -0.00156
      31 ->142        -0.00009
      31 ->145         0.00109
      31 ->148         0.00131
      31 ->151        -0.00139
      31 ->153         0.00033
      31 ->156        -0.00156
      31 ->158        -0.00015
      31 ->161         0.00031
      31 ->163        -0.00026
      31 ->165        -0.00012
      31 ->166        -0.00026
      31 ->168        -0.00012
      31 ->173         0.00003
      31 ->176        -0.00003
      31 ->177        -0.00004
      31 ->184        -0.00017
      31 ->190        -0.00006
      31 ->194         0.00002
      31 ->196         0.00019
      31 ->197         0.00007
      31 ->201         0.00007
      31 ->204         0.00020
      31 ->208        -0.00004
      31 ->210        -0.00006
      31 ->215        -0.00003
      31 ->218        -0.00002
      31 ->223        -0.00004
      31 ->225        -0.00006
      31 ->228        -0.00006
      31 ->230        -0.00002
      31 ->233         0.00006
      31 ->235         0.00015
      31 ->243        -0.00031
      31 ->246         0.00022
      31 ->248        -0.00003
      31 ->250         0.00009
      31 ->253         0.00004
      31 ->254         0.00015
      31 ->257        -0.00013
      31 ->258        -0.00004
      31 ->261         0.00003
      32 -> 68        -0.00391
      32 -> 70        -0.00271
      32 -> 73         0.00052
      32 -> 78        -0.00094
      32 -> 80        -0.00081
      32 -> 82        -0.00058
      32 -> 83        -0.00167
      32 -> 86        -0.00045
      32 -> 88         0.00087
      32 -> 90        -0.00096
      32 -> 93         0.00073
      32 -> 95         0.00066
      32 -> 97         0.00043
      32 ->100         0.00137
      32 ->101         0.00029
      32 ->103         0.00014
      32 ->105        -0.00061
      32 ->109         0.00174
      32 ->113         0.00036
      32 ->117         0.00068
      32 ->127         0.00043
      32 ->131        -0.00043
      32 ->132         0.00127
      32 ->134        -0.00040
      32 ->137        -0.00065
      32 ->138        -0.00127
      32 ->143         0.00141
      32 ->144        -0.00124
      32 ->147        -0.00162
      32 ->149        -0.00044
      32 ->154         0.00055
      32 ->157        -0.00059
      32 ->159         0.00017
      32 ->160        -0.00029
      32 ->162        -0.00079
      32 ->164        -0.00016
      32 ->167        -0.00005
      32 ->169         0.00013
      32 ->172         0.00006
      32 ->174        -0.00006
      32 ->180         0.00007
      32 ->183         0.00010
      32 ->185         0.00005
      32 ->193        -0.00006
      32 ->195        -0.00007
      32 ->198         0.00010
      32 ->202        -0.00007
      32 ->206         0.00005
      32 ->207         0.00015
      32 ->212        -0.00012
      32 ->214         0.00002
      32 ->219         0.00001
      32 ->222         0.00008
      32 ->224        -0.00013
      32 ->226        -0.00009
      32 ->227         0.00003
      32 ->229         0.00002
      32 ->234        -0.00008
      32 ->238         0.00010
      32 ->245         0.00005
      32 ->247         0.00011
      32 ->249         0.00014
      32 ->251         0.00025
      32 ->252         0.00016
      32 ->255         0.00001
      32 ->256         0.00002
      32 ->259         0.00016
      32 ->260         0.00005
      32 ->262         0.00004
      33 -> 69        -0.00279
      33 -> 72         0.00096
      33 -> 74        -0.00036
      33 -> 77        -0.00004
      33 -> 79        -0.00220
      33 -> 81        -0.00133
      33 -> 84         0.00158
      33 -> 85        -0.00051
      33 -> 87        -0.00061
      33 -> 89         0.00061
      33 -> 91        -0.00133
      33 -> 92        -0.00048
      33 -> 94         0.00024
      33 -> 96         0.00019
      33 -> 98         0.00097
      33 -> 99        -0.00083
      33 ->102        -0.00019
      33 ->104         0.00116
      33 ->106        -0.00062
      33 ->111        -0.00076
      33 ->114         0.00079
      33 ->125        -0.00053
      33 ->128        -0.00083
      33 ->129        -0.00023
      33 ->135         0.00040
      33 ->136         0.00062
      33 ->139        -0.00014
      33 ->142         0.00108
      33 ->145         0.00132
      33 ->148         0.00026
      33 ->151        -0.00039
      33 ->153        -0.00042
      33 ->156         0.00053
      33 ->158         0.00020
      33 ->161        -0.00056
      33 ->163        -0.00022
      33 ->165        -0.00005
      33 ->166         0.00002
      33 ->168         0.00019
      33 ->173        -0.00014
      33 ->176         0.00010
      33 ->177         0.00013
      33 ->184        -0.00004
      33 ->190         0.00003
      33 ->194        -0.00014
      33 ->196        -0.00002
      33 ->197        -0.00008
      33 ->201         0.00005
      33 ->204         0.00002
      33 ->205        -0.00008
      33 ->208        -0.00016
      33 ->210        -0.00002
      33 ->215        -0.00001
      33 ->218         0.00007
      33 ->223        -0.00005
      33 ->225        -0.00003
      33 ->228        -0.00008
      33 ->230         0.00014
      33 ->233        -0.00003
      33 ->235        -0.00002
      33 ->243        -0.00010
      33 ->248        -0.00007
      33 ->250        -0.00019
      33 ->253        -0.00005
      33 ->257         0.00003
      33 ->258        -0.00009
      33 ->261         0.00001
      34 -> 68        -0.00045
      34 -> 70        -0.00076
      34 -> 73        -0.00192
      34 -> 78         0.00238
      34 -> 80         0.00102
      34 -> 82        -0.00188
      34 -> 83         0.00012
      34 -> 86         0.00077
      34 -> 88        -0.00073
      34 -> 90         0.00126
      34 -> 93        -0.00122
      34 -> 95        -0.00069
      34 -> 97        -0.00096
      34 ->100        -0.00010
      34 ->101        -0.00089
      34 ->103        -0.00054
      34 ->105        -0.00152
      34 ->109         0.00048
      34 ->113         0.00023
      34 ->117         0.00056
      34 ->127         0.00024
      34 ->131         0.00088
      34 ->132        -0.00039
      34 ->134         0.00030
      34 ->137        -0.00026
      34 ->138        -0.00041
      34 ->143        -0.00039
      34 ->144         0.00158
      34 ->147         0.00028
      34 ->149        -0.00107
      34 ->154        -0.00015
      34 ->157        -0.00004
      34 ->159         0.00030
      34 ->160         0.00060
      34 ->162         0.00031
      34 ->164         0.00011
      34 ->167        -0.00029
      34 ->169        -0.00025
      34 ->172         0.00003
      34 ->174         0.00009
      34 ->180        -0.00004
      34 ->183         0.00004
      34 ->185        -0.00002
      34 ->193         0.00005
      34 ->195        -0.00014
      34 ->198         0.00010
      34 ->202        -0.00011
      34 ->206        -0.00019
      34 ->207        -0.00019
      34 ->212         0.00014
      34 ->214        -0.00012
      34 ->219        -0.00003
      34 ->222        -0.00010
      34 ->224         0.00018
      34 ->226         0.00008
      34 ->227        -0.00010
      34 ->229        -0.00008
      34 ->234         0.00014
      34 ->238         0.00019
      34 ->245        -0.00004
      34 ->247         0.00014
      34 ->249         0.00003
      34 ->251        -0.00017
      34 ->252        -0.00010
      34 ->255        -0.00006
      34 ->256        -0.00006
      34 ->259        -0.00006
      34 ->260        -0.00004
      34 ->262        -0.00006
      35 -> 68        -0.00260
      35 -> 70         0.00078
      35 -> 73        -0.00065
      35 -> 78         0.00171
      35 -> 80        -0.00247
      35 -> 82         0.00331
      35 -> 83        -0.00232
      35 -> 86         0.00285
      35 -> 88        -0.00108
      35 -> 90         0.00015
      35 -> 93        -0.00074
      35 -> 95        -0.00009
      35 -> 97        -0.00040
      35 ->100         0.00036
      35 ->101         0.00108
      35 ->103        -0.00072
      35 ->105        -0.00195
      35 ->109        -0.00001
      35 ->113         0.00055
      35 ->117         0.00022
      35 ->127        -0.00140
      35 ->131         0.00039
      35 ->132         0.00052
      35 ->134        -0.00078
      35 ->137         0.00030
      35 ->138        -0.00059
      35 ->143        -0.00077
      35 ->144         0.00062
      35 ->147         0.00069
      35 ->149        -0.00080
      35 ->154        -0.00069
      35 ->157        -0.00061
      35 ->159         0.00009
      35 ->160        -0.00080
      35 ->162        -0.00072
      35 ->164        -0.00008
      35 ->167        -0.00032
      35 ->169         0.00027
      35 ->172        -0.00002
      35 ->174        -0.00028
      35 ->180        -0.00002
      35 ->183        -0.00012
      35 ->185         0.00010
      35 ->193         0.00022
      35 ->195        -0.00011
      35 ->198         0.00011
      35 ->202        -0.00008
      35 ->206         0.00006
      35 ->207        -0.00012
      35 ->212        -0.00019
      35 ->214        -0.00003
      35 ->219        -0.00003
      35 ->222        -0.00012
      35 ->224         0.00001
      35 ->226        -0.00017
      35 ->227         0.00012
      35 ->229         0.00002
      35 ->234         0.00012
      35 ->238         0.00010
      35 ->245        -0.00014
      35 ->247         0.00008
      35 ->249        -0.00006
      35 ->251        -0.00009
      35 ->252         0.00022
      35 ->255        -0.00011
      35 ->256         0.00004
      35 ->259        -0.00003
      35 ->260        -0.00001
      36 -> 69        -0.00015
      36 -> 72        -0.00067
      36 -> 74         0.00143
      36 -> 77        -0.00243
      36 -> 79        -0.00273
      36 -> 81         0.00104
      36 -> 84        -0.00022
      36 -> 85         0.00210
      36 -> 87         0.00050
      36 -> 89         0.00294
      36 -> 91         0.00022
      36 -> 92        -0.00026
      36 -> 94         0.00123
      36 -> 96        -0.00039
      36 -> 98         0.00133
      36 -> 99        -0.00011
      36 ->102         0.00048
      36 ->104        -0.00245
      36 ->106         0.00023
      36 ->111        -0.00062
      36 ->114        -0.00115
      36 ->121        -0.00061
      36 ->125        -0.00046
      36 ->128        -0.00141
      36 ->129        -0.00083
      36 ->135         0.00257
      36 ->136         0.00232
      36 ->139        -0.00139
      36 ->142        -0.00013
      36 ->145         0.00218
      36 ->148        -0.00121
      36 ->151        -0.00137
      36 ->153        -0.00055
      36 ->156        -0.00076
      36 ->158        -0.00004
      36 ->163         0.00012
      36 ->165        -0.00048
      36 ->166         0.00005
      36 ->168        -0.00022
      36 ->176         0.00014
      36 ->177         0.00019
      36 ->184        -0.00039
      36 ->190        -0.00040
      36 ->194        -0.00004
      36 ->196         0.00016
      36 ->197         0.00007
      36 ->201        -0.00014
      36 ->204         0.00010
      36 ->205        -0.00014
      36 ->208         0.00008
      36 ->210        -0.00002
      36 ->215        -0.00025
      36 ->218         0.00003
      36 ->223        -0.00010
      36 ->225        -0.00039
      36 ->228        -0.00024
      36 ->230        -0.00026
      36 ->233         0.00037
      36 ->235         0.00013
      36 ->243        -0.00008
      36 ->246        -0.00003
      36 ->248        -0.00005
      36 ->250         0.00003
      36 ->253        -0.00014
      36 ->254         0.00030
      36 ->257         0.00007
      36 ->258        -0.00017
      37 -> 68        -0.00124
      37 -> 70         0.00114
      37 -> 73         0.00187
      37 -> 78        -0.00207
      37 -> 80         0.00144
      37 -> 82        -0.00197
      37 -> 83        -0.00184
      37 -> 86         0.00119
      37 -> 88         0.00196
      37 -> 90         0.00069
      37 -> 93        -0.00104
      37 -> 95        -0.00003
      37 -> 97        -0.00088
      37 ->100         0.00131
      37 ->101         0.00042
      37 ->103        -0.00134
      37 ->105        -0.00228
      37 ->109        -0.00056
      37 ->113        -0.00056
      37 ->117        -0.00192
      37 ->127         0.00224
      37 ->131        -0.00025
      37 ->132        -0.00012
      37 ->134        -0.00014
      37 ->137         0.00075
      37 ->138        -0.00036
      37 ->143         0.00265
      37 ->144         0.00215
      37 ->147        -0.00073
      37 ->149        -0.00007
      37 ->154        -0.00009
      37 ->157        -0.00064
      37 ->159         0.00006
      37 ->160        -0.00028
      37 ->162        -0.00034
      37 ->164        -0.00059
      37 ->167        -0.00048
      37 ->169         0.00021
      37 ->172         0.00017
      37 ->174        -0.00014
      37 ->180         0.00010
      37 ->183        -0.00021
      37 ->185        -0.00005
      37 ->193        -0.00011
      37 ->195         0.00002
      37 ->198         0.00005
      37 ->202         0.00008
      37 ->206        -0.00022
      37 ->207        -0.00025
      37 ->212         0.00009
      37 ->214        -0.00004
      37 ->219        -0.00029
      37 ->222         0.00003
      37 ->224        -0.00012
      37 ->226         0.00001
      37 ->227        -0.00011
      37 ->229        -0.00005
      37 ->234        -0.00002
      37 ->238        -0.00016
      37 ->245        -0.00033
      37 ->247        -0.00001
      37 ->249         0.00005
      37 ->251        -0.00004
      37 ->252        -0.00004
      37 ->255        -0.00013
      37 ->256         0.00007
      37 ->259         0.00004
      37 ->260        -0.00009
      37 ->262        -0.00016
      38 -> 69         0.00209
      38 -> 72        -0.00047
      38 -> 74         0.00161
      38 -> 77         0.00269
      38 -> 79         0.00503
      38 -> 81        -0.00174
      38 -> 84         0.00449
      38 -> 85         0.00034
      38 -> 87         0.00227
      38 -> 89        -0.00062
      38 -> 91        -0.00053
      38 -> 92         0.00075
      38 -> 94         0.00040
      38 -> 96        -0.00111
      38 -> 98         0.00105
      38 -> 99        -0.00048
      38 ->102         0.00012
      38 ->104         0.00072
      38 ->106        -0.00128
      38 ->111        -0.00076
      38 ->114         0.00071
      38 ->121         0.00056
      38 ->125        -0.00083
      38 ->128         0.00200
      38 ->129        -0.00038
      38 ->135         0.00217
      38 ->136         0.00299
      38 ->139         0.00105
      38 ->142        -0.00107
      38 ->145         0.00080
      38 ->148         0.00064
      38 ->151        -0.00167
      38 ->153        -0.00031
      38 ->156         0.00069
      38 ->158         0.00062
      38 ->161        -0.00028
      38 ->163         0.00058
      38 ->165         0.00025
      38 ->166         0.00013
      38 ->168         0.00004
      38 ->173        -0.00016
      38 ->176        -0.00005
      38 ->177         0.00017
      38 ->184        -0.00019
      38 ->190        -0.00021
      38 ->196         0.00025
      38 ->197         0.00006
      38 ->201        -0.00018
      38 ->204        -0.00031
      38 ->205        -0.00008
      38 ->208         0.00013
      38 ->210        -0.00005
      38 ->215        -0.00009
      38 ->218         0.00019
      38 ->223        -0.00002
      38 ->225        -0.00017
      38 ->228        -0.00012
      38 ->230        -0.00029
      38 ->233         0.00020
      38 ->235         0.00012
      38 ->243        -0.00029
      38 ->246        -0.00017
      38 ->248         0.00004
      38 ->250         0.00007
      38 ->253        -0.00009
      38 ->254         0.00009
      38 ->257         0.00015
      38 ->258        -0.00012
      38 ->261        -0.00009
      39 -> 68         0.00055
      39 -> 70         0.00476
      39 -> 73        -0.00264
      39 -> 78         0.00532
      39 -> 80        -0.00093
      39 -> 82        -0.00410
      39 -> 83        -0.00081
      39 -> 86        -0.00116
      39 -> 88        -0.00134
      39 -> 90        -0.00024
      39 -> 93         0.00046
      39 -> 95        -0.00074
      39 -> 97         0.00062
      39 ->100        -0.00046
      39 ->101        -0.00095
      39 ->103         0.00023
      39 ->105        -0.00151
      39 ->109         0.00189
      39 ->113        -0.00064
      39 ->117         0.00048
      39 ->127        -0.00108
      39 ->131        -0.00027
      39 ->132        -0.00091
      39 ->134         0.00075
      39 ->137         0.00147
      39 ->138        -0.00126
      39 ->143         0.00239
      39 ->144        -0.00116
      39 ->147        -0.00074
      39 ->149        -0.00115
      39 ->154         0.00092
      39 ->157        -0.00064
      39 ->159         0.00029
      39 ->160         0.00015
      39 ->162        -0.00018
      39 ->164         0.00011
      39 ->167        -0.00016
      39 ->169        -0.00015
      39 ->172        -0.00005
      39 ->174        -0.00013
      39 ->180         0.00003
      39 ->183        -0.00003
      39 ->185        -0.00012
      39 ->193        -0.00017
      39 ->195         0.00025
      39 ->198         0.00003
      39 ->202         0.00014
      39 ->206         0.00005
      39 ->207         0.00006
      39 ->212         0.00012
      39 ->214        -0.00008
      39 ->219         0.00003
      39 ->222         0.00014
      39 ->224        -0.00011
      39 ->226         0.00011
      39 ->227        -0.00013
      39 ->229         0.00005
      39 ->234        -0.00013
      39 ->238        -0.00018
      39 ->245         0.00003
      39 ->247        -0.00015
      39 ->249         0.00004
      39 ->251         0.00014
      39 ->252        -0.00002
      39 ->255         0.00007
      39 ->259         0.00012
      39 ->260        -0.00002
      39 ->262         0.00004
      40 -> 69        -0.00171
      40 -> 72        -0.00629
      40 -> 74         0.00296
      40 -> 77         0.00380
      40 -> 79         0.00071
      40 -> 81         0.00214
      40 -> 84        -0.00313
      40 -> 85         0.00191
      40 -> 87         0.00179
      40 -> 89         0.00183
      40 -> 91         0.00167
      40 -> 92         0.00018
      40 -> 94        -0.00014
      40 -> 96         0.00029
      40 -> 98        -0.00034
      40 -> 99         0.00113
      40 ->102         0.00067
      40 ->104        -0.00132
      40 ->106        -0.00043
      40 ->111        -0.00086
      40 ->114        -0.00083
      40 ->121        -0.00003
      40 ->125         0.00166
      40 ->128         0.00043
      40 ->129        -0.00045
      40 ->135         0.00055
      40 ->136        -0.00112
      40 ->139         0.00002
      40 ->142        -0.00241
      40 ->145         0.00158
      40 ->148         0.00025
      40 ->151        -0.00104
      40 ->153         0.00020
      40 ->156         0.00067
      40 ->158        -0.00024
      40 ->161        -0.00017
      40 ->163         0.00079
      40 ->165        -0.00021
      40 ->166         0.00017
      40 ->168        -0.00008
      40 ->173        -0.00003
      40 ->176        -0.00005
      40 ->177         0.00003
      40 ->184         0.00017
      40 ->190        -0.00007
      40 ->194        -0.00004
      40 ->196         0.00016
      40 ->197         0.00048
      40 ->201        -0.00005
      40 ->204        -0.00026
      40 ->205        -0.00014
      40 ->208         0.00015
      40 ->215        -0.00010
      40 ->218         0.00004
      40 ->223        -0.00002
      40 ->225        -0.00012
      40 ->228         0.00005
      40 ->230        -0.00025
      40 ->233         0.00002
      40 ->235         0.00008
      40 ->243        -0.00052
      40 ->246        -0.00003
      40 ->248         0.00006
      40 ->250        -0.00003
      40 ->253        -0.00005
      40 ->257         0.00010
      40 ->258        -0.00004
      40 ->261        -0.00003
      41 -> 68         0.00608
      41 -> 70         0.00175
      41 -> 73        -0.00043
      41 -> 78        -0.00216
      41 -> 80         0.00117
      41 -> 82         0.00225
      41 -> 83         0.00359
      41 -> 88        -0.00073
      41 -> 90         0.00063
      41 -> 93         0.00019
      41 -> 95        -0.00257
      41 -> 97        -0.00160
      41 ->100         0.00200
      41 ->101         0.00384
      41 ->103        -0.00107
      41 ->105        -0.00220
      41 ->109         0.00120
      41 ->113         0.00148
      41 ->117        -0.00172
      41 ->127        -0.00023
      41 ->131         0.00065
      41 ->132         0.00085
      41 ->134         0.00111
      41 ->137         0.00194
      41 ->138         0.00008
      41 ->143         0.00133
      41 ->144        -0.00155
      41 ->147        -0.00181
      41 ->149        -0.00157
      41 ->154         0.00005
      41 ->157         0.00052
      41 ->159         0.00116
      41 ->160        -0.00135
      41 ->162        -0.00152
      41 ->164        -0.00015
      41 ->167         0.00057
      41 ->169         0.00026
      41 ->172        -0.00051
      41 ->174        -0.00027
      41 ->180        -0.00054
      41 ->183         0.00015
      41 ->185        -0.00014
      41 ->193        -0.00001
      41 ->195         0.00003
      41 ->198        -0.00026
      41 ->202         0.00004
      41 ->206         0.00022
      41 ->207         0.00021
      41 ->212        -0.00005
      41 ->214         0.00005
      41 ->219         0.00009
      41 ->222         0.00014
      41 ->224        -0.00019
      41 ->226        -0.00018
      41 ->227         0.00023
      41 ->229         0.00008
      41 ->234         0.00002
      41 ->238         0.00015
      41 ->245         0.00009
      41 ->247         0.00012
      41 ->249         0.00002
      41 ->251         0.00009
      41 ->252         0.00019
      41 ->255        -0.00002
      41 ->256         0.00006
      41 ->259         0.00015
      41 ->260         0.00006
      41 ->262         0.00009
      42 -> 69         0.00160
      42 -> 72         0.00037
      42 -> 74        -0.00689
      42 -> 77        -0.00560
      42 -> 79         0.00148
      42 -> 81         0.00251
      42 -> 84        -0.00443
      42 -> 85        -0.00078
      42 -> 87        -0.00029
      42 -> 89         0.00140
      42 -> 91         0.00144
      42 -> 92        -0.00011
      42 -> 94        -0.00205
      42 -> 96         0.00030
      42 -> 98        -0.00011
      42 -> 99        -0.00222
      42 ->102        -0.00242
      42 ->104         0.00078
      42 ->106        -0.00097
      42 ->111        -0.00038
      42 ->114        -0.00083
      42 ->121         0.00170
      42 ->125         0.00060
      42 ->128         0.00079
      42 ->129        -0.00088
      42 ->135        -0.00047
      42 ->136        -0.00085
      42 ->139        -0.00012
      42 ->142         0.00031
      42 ->145         0.00162
      42 ->148         0.00008
      42 ->151         0.00046
      42 ->153        -0.00185
      42 ->156        -0.00028
      42 ->158        -0.00025
      42 ->161        -0.00077
      42 ->163        -0.00058
      42 ->165        -0.00034
      42 ->166        -0.00055
      42 ->168         0.00034
      42 ->173         0.00029
      42 ->176         0.00003
      42 ->177        -0.00015
      42 ->184         0.00004
      42 ->194        -0.00009
      42 ->196        -0.00015
      42 ->201         0.00006
      42 ->204         0.00024
      42 ->205         0.00003
      42 ->208        -0.00002
      42 ->210        -0.00009
      42 ->215        -0.00015
      42 ->218         0.00002
      42 ->223        -0.00004
      42 ->225        -0.00015
      42 ->228        -0.00016
      42 ->230         0.00028
      42 ->233        -0.00002
      42 ->235        -0.00011
      42 ->243         0.00021
      42 ->246         0.00002
      42 ->248        -0.00005
      42 ->250        -0.00015
      42 ->253        -0.00003
      42 ->257         0.00002
      42 ->258        -0.00011
      42 ->261         0.00006
      43 -> 68        -0.00443
      43 -> 70        -0.00081
      43 -> 73        -0.00664
      43 -> 78        -0.00080
      43 -> 80         0.00004
      43 -> 82        -0.00467
      43 -> 83         0.00122
      43 -> 86        -0.00111
      43 -> 88        -0.00074
      43 -> 90        -0.00053
      43 -> 93        -0.00063
      43 -> 95         0.00117
      43 -> 97        -0.00049
      43 ->100         0.00070
      43 ->101         0.00075
      43 ->103        -0.00051
      43 ->105         0.00126
      43 ->109        -0.00172
      43 ->113        -0.00024
      43 ->117         0.00030
      43 ->127         0.00076
      43 ->131        -0.00111
      43 ->132         0.00014
      43 ->134         0.00081
      43 ->137         0.00084
      43 ->138        -0.00213
      43 ->143        -0.00047
      43 ->144        -0.00112
      43 ->147         0.00207
      43 ->149         0.00095
      43 ->154        -0.00108
      43 ->157         0.00081
      43 ->159         0.00028
      43 ->160        -0.00038
      43 ->162        -0.00005
      43 ->164        -0.00007
      43 ->169         0.00045
      43 ->172         0.00010
      43 ->174         0.00015
      43 ->180         0.00012
      43 ->183         0.00010
      43 ->185         0.00001
      43 ->193         0.00006
      43 ->195         0.00019
      43 ->198         0.00018
      43 ->202        -0.00003
      43 ->212         0.00002
      43 ->214         0.00005
      43 ->219         0.00020
      43 ->222        -0.00011
      43 ->224         0.00017
      43 ->226        -0.00009
      43 ->227         0.00018
      43 ->229         0.00010
      43 ->234         0.00003
      43 ->238        -0.00007
      43 ->247        -0.00012
      43 ->249        -0.00005
      43 ->252         0.00010
      43 ->255        -0.00002
      43 ->256         0.00001
      43 ->259        -0.00009
      43 ->262         0.00010
      44 -> 69        -0.00368
      44 -> 72         0.01292
      44 -> 74        -0.00231
      44 -> 77        -0.00275
      44 -> 79        -0.00131
      44 -> 81        -0.00254
      44 -> 84        -0.00784
      44 -> 85         0.00023
      44 -> 87         0.00164
      44 -> 89         0.00359
      44 -> 91         0.00148
      44 -> 92         0.00078
      44 -> 94        -0.00037
      44 -> 96         0.00073
      44 -> 98         0.00053
      44 -> 99        -0.00089
      44 ->102        -0.00104
      44 ->104        -0.00249
      44 ->106        -0.00131
      44 ->111        -0.00030
      44 ->114        -0.00108
      44 ->121         0.00132
      44 ->125         0.00295
      44 ->128        -0.00032
      44 ->129         0.00171
      44 ->135        -0.00022
      44 ->136         0.00212
      44 ->139        -0.00106
      44 ->142        -0.00060
      44 ->145        -0.00002
      44 ->148        -0.00083
      44 ->151        -0.00146
      44 ->153        -0.00033
      44 ->156        -0.00010
      44 ->158        -0.00143
      44 ->161        -0.00041
      44 ->163         0.00001
      44 ->165        -0.00087
      44 ->166        -0.00021
      44 ->168        -0.00046
      44 ->173         0.00008
      44 ->176         0.00022
      44 ->177         0.00015
      44 ->184        -0.00012
      44 ->190        -0.00022
      44 ->194         0.00015
      44 ->196        -0.00004
      44 ->197         0.00004
      44 ->201        -0.00005
      44 ->204         0.00016
      44 ->205        -0.00008
      44 ->210        -0.00003
      44 ->215        -0.00029
      44 ->218         0.00022
      44 ->223        -0.00007
      44 ->225        -0.00014
      44 ->228         0.00005
      44 ->230        -0.00023
      44 ->233         0.00021
      44 ->235         0.00007
      44 ->243         0.00001
      44 ->246        -0.00010
      44 ->250         0.00005
      44 ->253        -0.00020
      44 ->254         0.00004
      44 ->257         0.00010
      44 ->258        -0.00011
      44 ->261        -0.00013
      45 -> 68         0.00634
      45 -> 70         0.00497
      45 -> 73         0.00560
      45 -> 78         0.00205
      45 -> 80         0.00423
      45 -> 82        -0.00472
      45 -> 83        -0.00121
      45 -> 86        -0.00072
      45 -> 88        -0.00158
      45 -> 90         0.00089
      45 -> 93        -0.00035
      45 -> 95         0.00139
      45 -> 97        -0.00059
      45 ->100         0.00014
      45 ->101        -0.00109
      45 ->103         0.00050
      45 ->105         0.00053
      45 ->109        -0.00011
      45 ->113         0.00020
      45 ->117         0.00085
      45 ->127         0.00082
      45 ->131         0.00133
      45 ->132         0.00162
      45 ->134        -0.00042
      45 ->137         0.00012
      45 ->138        -0.00029
      45 ->143        -0.00246
      45 ->144        -0.00106
      45 ->147         0.00141
      45 ->149         0.00023
      45 ->154        -0.00083
      45 ->157         0.00179
      45 ->159        -0.00108
      45 ->160         0.00007
      45 ->162         0.00018
      45 ->164         0.00052
      45 ->167        -0.00029
      45 ->172        -0.00016
      45 ->174        -0.00018
      45 ->180        -0.00047
      45 ->183         0.00010
      45 ->185         0.00016
      45 ->193         0.00016
      45 ->195        -0.00011
      45 ->198         0.00045
      45 ->202        -0.00033
      45 ->206        -0.00027
      45 ->207        -0.00014
      45 ->212        -0.00012
      45 ->214         0.00009
      45 ->219         0.00024
      45 ->222        -0.00034
      45 ->224         0.00032
      45 ->226        -0.00020
      45 ->227        -0.00008
      45 ->229        -0.00015
      45 ->234         0.00003
      45 ->238         0.00034
      45 ->247         0.00004
      45 ->249         0.00009
      45 ->251         0.00001
      45 ->252         0.00010
      45 ->255         0.00006
      45 ->256        -0.00005
      45 ->259        -0.00016
      45 ->260         0.00022
      45 ->262         0.00005
      46 -> 66         0.00285
      46 -> 71         0.00023
      46 -> 76        -0.00701
      46 ->108         0.00140
      46 ->112         0.00052
      46 ->116         0.00096
      46 ->118        -0.00117
      46 ->123         0.00108
      46 ->124        -0.00003
      46 ->130         0.00078
      46 ->141         0.00032
      46 ->146        -0.00040
      46 ->155         0.00081
      46 ->171        -0.00046
      46 ->178         0.00004
      46 ->181         0.00025
      46 ->186         0.00033
      46 ->188         0.00008
      46 ->191        -0.00010
      46 ->203        -0.00009
      46 ->211         0.00014
      46 ->220        -0.00006
      46 ->232         0.00005
      46 ->236         0.00006
      46 ->240         0.00001
      46 ->241         0.00005
      46 ->244         0.00005
      47 -> 69         0.00400
      47 -> 72        -0.00292
      47 -> 74        -0.00041
      47 -> 77         0.00275
      47 -> 79        -0.00551
      47 -> 81         0.00219
      47 -> 84         0.00551
      47 -> 85         0.00134
      47 -> 87         0.00569
      47 -> 89         0.00401
      47 -> 91        -0.00035
      47 -> 92        -0.00142
      47 -> 94         0.00210
      47 -> 96         0.00009
      47 -> 98        -0.00146
      47 -> 99        -0.00128
      47 ->102         0.00006
      47 ->104         0.00122
      47 ->106        -0.00189
      47 ->111        -0.00087
      47 ->114        -0.00009
      47 ->121        -0.00115
      47 ->125        -0.00267
      47 ->128        -0.00036
      47 ->129         0.00098
      47 ->135         0.00203
      47 ->136         0.00203
      47 ->139         0.00131
      47 ->142        -0.00174
      47 ->145         0.00138
      47 ->148         0.00125
      47 ->151        -0.00266
      47 ->153        -0.00094
      47 ->156        -0.00053
      47 ->158         0.00129
      47 ->161         0.00040
      47 ->163        -0.00047
      47 ->165        -0.00001
      47 ->166        -0.00013
      47 ->168        -0.00052
      47 ->173         0.00009
      47 ->176        -0.00020
      47 ->177         0.00010
      47 ->184         0.00012
      47 ->190         0.00047
      47 ->194        -0.00023
      47 ->196        -0.00007
      47 ->197         0.00004
      47 ->201         0.00016
      47 ->204         0.00043
      47 ->205         0.00037
      47 ->208         0.00026
      47 ->210        -0.00011
      47 ->215        -0.00016
      47 ->218         0.00009
      47 ->223        -0.00009
      47 ->225        -0.00043
      47 ->228        -0.00003
      47 ->230        -0.00010
      47 ->233         0.00011
      47 ->235         0.00012
      47 ->243        -0.00027
      47 ->246         0.00025
      47 ->248         0.00005
      47 ->250         0.00007
      47 ->253        -0.00008
      47 ->257         0.00016
      47 ->258        -0.00016
      47 ->261        -0.00005
      48 -> 68         0.00745
      48 -> 70         0.00340
      48 -> 73        -0.00351
      48 -> 78         0.00192
      48 -> 80        -0.00469
      48 -> 82         0.00164
      48 -> 83         0.00671
      48 -> 86        -0.00148
      48 -> 88         0.00193
      48 -> 90        -0.00130
      48 -> 93         0.00218
      48 -> 95         0.00098
      48 -> 97        -0.00008
      48 ->100        -0.00116
      48 ->101        -0.00159
      48 ->103         0.00014
      48 ->105         0.00121
      48 ->109        -0.00043
      48 ->113        -0.00056
      48 ->117        -0.00032
      48 ->127        -0.00084
      48 ->131         0.00137
      48 ->132        -0.00235
      48 ->134         0.00142
      48 ->137        -0.00326
      48 ->138         0.00086
      48 ->143        -0.00032
      48 ->144         0.00081
      48 ->147         0.00085
      48 ->149         0.00193
      48 ->154        -0.00079
      48 ->157         0.00077
      48 ->159        -0.00140
      48 ->160         0.00089
      48 ->162         0.00032
      48 ->164        -0.00154
      48 ->167        -0.00032
      48 ->169         0.00045
      48 ->172         0.00006
      48 ->174        -0.00019
      48 ->180        -0.00024
      48 ->183        -0.00039
      48 ->185         0.00012
      48 ->193         0.00007
      48 ->195        -0.00002
      48 ->198         0.00051
      48 ->202        -0.00031
      48 ->206        -0.00046
      48 ->207        -0.00010
      48 ->212        -0.00021
      48 ->214        -0.00006
      48 ->219        -0.00032
      48 ->222        -0.00025
      48 ->224         0.00027
      48 ->226        -0.00007
      48 ->227        -0.00021
      48 ->229        -0.00032
      48 ->234        -0.00006
      48 ->238        -0.00016
      48 ->245        -0.00049
      48 ->247        -0.00015
      48 ->249         0.00014
      48 ->251         0.00016
      48 ->252        -0.00009
      48 ->255        -0.00020
      48 ->256        -0.00012
      48 ->259        -0.00013
      48 ->260         0.00002
      48 ->262        -0.00006
      49 -> 69         0.00186
      49 -> 72        -0.00649
      49 -> 74         0.00451
      49 -> 77         0.00985
      49 -> 79         0.00792
      49 -> 81         0.00184
      49 -> 84         0.00340
      49 -> 85        -0.00231
      49 -> 87        -0.00576
      49 -> 89         0.00110
      49 -> 91        -0.00100
      49 -> 92        -0.00105
      49 -> 94        -0.00124
      49 -> 96        -0.00031
      49 -> 98        -0.00084
      49 -> 99        -0.00065
      49 ->102        -0.00004
      49 ->104         0.00045
      49 ->106        -0.00026
      49 ->111         0.00139
      49 ->114         0.00008
      49 ->121         0.00010
      49 ->125        -0.00204
      49 ->128         0.00188
      49 ->129        -0.00163
      49 ->135         0.00172
      49 ->136        -0.00040
      49 ->139         0.00147
      49 ->142         0.00382
      49 ->145         0.00088
      49 ->148        -0.00114
      49 ->151         0.00159
      49 ->153        -0.00178
      49 ->156        -0.00113
      49 ->158         0.00088
      49 ->161         0.00047
      49 ->163        -0.00084
      49 ->165        -0.00004
      49 ->166         0.00084
      49 ->168         0.00049
      49 ->173        -0.00003
      49 ->176        -0.00006
      49 ->177        -0.00001
      49 ->184        -0.00002
      49 ->190         0.00039
      49 ->194        -0.00013
      49 ->196        -0.00007
[...]
      60 <-181        -0.00116
      60 <-186         0.00089
      60 <-188        -0.00060
      60 <-191        -0.00030
      60 <-199         0.00048
      60 <-203         0.00125
      60 <-211        -0.00001
      60 <-217         0.00015
      60 <-220        -0.00015
      60 <-232        -0.00013
      60 <-236         0.00001
      60 <-240         0.00011
      60 <-241         0.00015
      61 <- 65        -0.00331
      61 <- 67        -0.00650
      61 <- 75        -0.00293
      61 <-107        -0.00003
      61 <-110        -0.00211
      61 <-115        -0.00053
      61 <-119         0.00103
      61 <-120        -0.00171
      61 <-122        -0.00199
      61 <-126         0.00124
      61 <-133        -0.00113
      61 <-140         0.00020
      61 <-150        -0.00129
      61 <-152         0.00032
      61 <-170         0.00038
      61 <-175        -0.00053
      61 <-179         0.00037
      61 <-182         0.00061
      61 <-187        -0.00045
      61 <-189         0.00055
      61 <-192        -0.00003
      61 <-200        -0.00079
      61 <-209         0.00009
      61 <-213        -0.00006
      61 <-216        -0.00019
      61 <-221         0.00002
      61 <-231        -0.00012
      61 <-237         0.00007
      61 <-239         0.00008
      61 <-242         0.00003
      62 <- 66         0.00703
      62 <- 71        -0.00072
      62 <- 76        -0.00529
      62 <-108        -0.00206
      62 <-112        -0.00116
      62 <-116        -0.00303
      62 <-118         0.00068
      62 <-123        -0.00004
      62 <-124        -0.00105
      62 <-130         0.00173
      62 <-141         0.00007
      62 <-146         0.00053
      62 <-155         0.00103
      62 <-171         0.00080
      62 <-181        -0.00028
      62 <-186         0.00130
      62 <-188         0.00027
      62 <-191        -0.00013
      62 <-199         0.00091
      62 <-203         0.00005
      62 <-211        -0.00009
      62 <-217         0.00024
      62 <-220        -0.00019
      62 <-232         0.00002
      62 <-236         0.00004
      62 <-241         0.00002
      63 <- 66        -0.00899
      63 <- 71         0.00020
      63 <- 76         0.00577
      63 <-108         0.00003
      63 <-112        -0.00161
      63 <-116         0.00283
      63 <-118         0.00145
      63 <-123         0.00136
      63 <-124        -0.00036
      63 <-130        -0.00083
      63 <-141        -0.00070
      63 <-146         0.00090
      63 <-155         0.00011
      63 <-171         0.00081
      63 <-178         0.00036
      63 <-181        -0.00016
      63 <-186         0.00017
      63 <-188         0.00009
      63 <-191         0.00079
      63 <-199        -0.00010
      63 <-203        -0.00032
      63 <-211        -0.00004
      63 <-217         0.00038
      63 <-220        -0.00030
      63 <-232        -0.00018
      63 <-236        -0.00007
      63 <-240        -0.00005
      63 <-241         0.00003
      63 <-244         0.00002
      64 <- 65        -0.05012
      64 <- 67         0.00401
      64 <- 75        -0.00336
      64 <-107         0.00083
      64 <-110         0.00046
      64 <-115        -0.00140
      64 <-119        -0.00186
      64 <-120        -0.00067
      64 <-122        -0.00411
      64 <-126        -0.00145
      64 <-133         0.00115
      64 <-140        -0.00030
      64 <-150         0.00058
      64 <-152         0.00007
      64 <-170        -0.00050
      64 <-175        -0.00038
      64 <-179         0.00009
      64 <-182         0.00007
      64 <-187         0.00009
      64 <-189        -0.00018
      64 <-192         0.00045
      64 <-200         0.00019
      64 <-209         0.00002
      64 <-213         0.00005
      64 <-216        -0.00027
      64 <-221         0.00044
      64 <-231        -0.00051
      64 <-237         0.00002
      64 <-239         0.00005
      64 <-242         0.00010
 This state for optimization and/or second-order correction.
 Total Energy, E(TD-HF/TD-KS) =  -1655.55594497    
 Copying the excited state density for this state as the 1-particle RhoCI density.
 SavETr:  write IOETrn=   770 NScale= 10 NData=  16 NLR=1 NState=    1 LETran=      28.
 Leave Link  914 at Thu Mar  3 17:48:45 2016, MaxMem=   65536000 cpu:     294.2
 (Enter /home/software/gaussian/gdvH23/gdv/l601.exe)
 Copying SCF densities to generalized density rwf, IOpCl= 0 IROHF=0.

 **********************************************************************

   Populations using transition density between ground and state  1.

 **********************************************************************

 Alpha  occ. eigenvalues --  -88.94861 -88.94771 -88.94770 -10.30165 -10.30163
 Alpha  occ. eigenvalues --  -10.30050 -10.30046 -10.28793 -10.28793 -10.27062
 Alpha  occ. eigenvalues --  -10.27037 -10.26926 -10.26926 -10.26878 -10.26877
 Alpha  occ. eigenvalues --   -8.04482  -8.04418  -8.04417  -6.01426  -6.01347
 Alpha  occ. eigenvalues --   -6.01346  -6.01017  -6.00935  -6.00935  -6.00638
 Alpha  occ. eigenvalues --   -6.00603  -6.00603  -0.98697  -0.97186  -0.95599
 Alpha  occ. eigenvalues --   -0.85841  -0.82948  -0.81706  -0.81579  -0.80225
 Alpha  occ. eigenvalues --   -0.76415  -0.68253  -0.66377  -0.63367  -0.62225
 Alpha  occ. eigenvalues --   -0.60102  -0.59883  -0.59767  -0.56584  -0.52340
 Alpha  occ. eigenvalues --   -0.48778  -0.48340  -0.48103  -0.47709  -0.46933
 Alpha  occ. eigenvalues --   -0.46644  -0.46175  -0.44867  -0.43870  -0.43668
 Alpha  occ. eigenvalues --   -0.41930  -0.40534  -0.39774  -0.35970  -0.32004
 Alpha  occ. eigenvalues --   -0.31363  -0.30940  -0.30196  -0.24418
 Alpha virt. eigenvalues --   -0.02412   0.02543   0.07363   0.07753   0.08541
 Alpha virt. eigenvalues --    0.09199   0.10343   0.11333   0.12462   0.12850
 Alpha virt. eigenvalues --    0.13592   0.14322   0.14549   0.15242   0.15728
 Alpha virt. eigenvalues --    0.17621   0.19054   0.19293   0.22981   0.27091
 Alpha virt. eigenvalues --    0.28114   0.30943   0.31789   0.33205   0.33292
 Alpha virt. eigenvalues --    0.34571   0.35841   0.36837   0.39991   0.40279
 Alpha virt. eigenvalues --    0.40972   0.43925   0.43932   0.44571   0.45602
 Alpha virt. eigenvalues --    0.46115   0.47223   0.48305   0.48737   0.49054
 Alpha virt. eigenvalues --    0.49224   0.50768   0.52603   0.52934   0.53238
 Alpha virt. eigenvalues --    0.54090   0.54792   0.55545   0.56170   0.57185
 Alpha virt. eigenvalues --    0.58427   0.59952   0.60914   0.62238   0.62828
 Alpha virt. eigenvalues --    0.63831   0.66217   0.66327   0.66662   0.67994
 Alpha virt. eigenvalues --    0.68104   0.68590   0.69179   0.70398   0.71186
 Alpha virt. eigenvalues --    0.72167   0.72288   0.73481   0.73509   0.73762
 Alpha virt. eigenvalues --    0.74762   0.75259   0.75699   0.76596   0.77831
 Alpha virt. eigenvalues --    0.78330   0.78499   0.79498   0.79794   0.80358
 Alpha virt. eigenvalues --    0.81319   0.82464   0.82868   0.85195   0.86461
 Alpha virt. eigenvalues --    0.86671   0.89144   0.91903   0.91910   0.93610
 Alpha virt. eigenvalues --    0.93621   0.94619   0.95544   0.98597   0.98780
 Alpha virt. eigenvalues --    1.05344   1.06434   1.07306   1.12909   1.17274
 Alpha virt. eigenvalues --    1.17859   1.20895   1.21534   1.24118   1.24798
 Alpha virt. eigenvalues --    1.24919   1.26746   1.27549   1.28269   1.28753
 Alpha virt. eigenvalues --    1.29563   1.31496   1.33124   1.33204   1.33565
 Alpha virt. eigenvalues --    1.35244   1.35628   1.36395   1.39927   1.40421
 Alpha virt. eigenvalues --    1.44739   1.47705   1.50509   1.61421   1.61630
 Alpha virt. eigenvalues --    1.68480   1.69989   1.73607   1.73829   1.74492
 Alpha virt. eigenvalues --    1.75675   1.76897   1.78139   1.80605   1.80902
 Alpha virt. eigenvalues --    1.83699   1.84201   1.84924   1.86455   1.87391
 Alpha virt. eigenvalues --    1.90188   1.92127   1.95218   1.95531   1.99896
 Alpha virt. eigenvalues --    2.00334   2.00870   2.01685   2.03345   2.03569
 Alpha virt. eigenvalues --    2.03627   2.05745   2.07818   2.09712   2.09785
 Alpha virt. eigenvalues --    2.10844   2.11599   2.16143   2.16568   2.18475
 Alpha virt. eigenvalues --    2.21696   2.23151   2.25887   2.27082   2.30200
 Alpha virt. eigenvalues --    2.33096   2.34989   2.40152   2.43015   2.45533
 Alpha virt. eigenvalues --    2.48109   2.48595   2.48761   2.49792   2.51211
 Alpha virt. eigenvalues --    2.51808   2.57300   2.62142   2.62348   2.65640
 Alpha virt. eigenvalues --    2.65782   2.73843   2.75604   2.76768   2.77298
 Alpha virt. eigenvalues --    2.78728   2.80837   2.82932   2.88851   2.96142
 Alpha virt. eigenvalues --    3.03010   3.07527   3.08498   3.15180   3.21351
 Alpha virt. eigenvalues --    3.42027   3.48298   3.50573
          Condensed to atoms (all electrons):
              1          2          3          4          5          6
     1  C   -0.089154  -0.048398   0.002153   0.018498  -0.000824   0.000580
     2  C   -0.048398   0.064405   0.004468   0.022270   0.002706  -0.011355
     3  H    0.002153   0.004468  -0.040349   0.006920   0.000585  -0.001051
     4  C    0.018498   0.022270   0.006920  -0.132730   0.001578  -0.020169
     5  H   -0.000824   0.002706   0.000585   0.001578  -0.063289   0.009383
     6  C    0.000580  -0.011355  -0.001051  -0.020169   0.009383   0.168841
     7  S    0.049379  -0.002868  -0.000761  -0.009544  -0.001117  -0.009686
     8  C   -0.001302  -0.001701   0.000068   0.022578   0.003357  -0.009438
     9  C    0.000063   0.000019   0.000000  -0.000172   0.000076  -0.021152
    10  H    0.000089  -0.000017   0.000001  -0.000031   0.000004  -0.001252
    11  C    0.000003  -0.000001   0.000000  -0.000053   0.000006   0.000129
    12  H    0.000000   0.000000   0.000000   0.000000   0.000000   0.000021
    13  C    0.000000  -0.000002   0.000000  -0.000111  -0.000085   0.001618
    14  S    0.000012   0.000272  -0.000001  -0.000434   0.001647  -0.016178
    15  C    0.000000   0.000000   0.000000   0.000003   0.000002   0.000000
    16  C    0.000000   0.000000   0.000000   0.000000  -0.000001  -0.000003
    17  H    0.000000   0.000000   0.000000   0.000001   0.000000  -0.000002
    18  C    0.000000   0.000000   0.000000   0.000000   0.000000   0.000000
    19  H    0.000000   0.000000   0.000000   0.000000   0.000000   0.000000
    20  C    0.000000   0.000000   0.000000   0.000000   0.000000   0.000000
    21  H    0.000000   0.000000   0.000000   0.000000   0.000000   0.000000
    22  S    0.000000   0.000000   0.000000   0.000000   0.000000   0.000000
    23  H    0.001606   0.001307   0.001043  -0.001478   0.000076  -0.000265
              7          8          9         10         11         12
     1  C    0.049379  -0.001302   0.000063   0.000089   0.000003   0.000000
     2  C   -0.002868  -0.001701   0.000019  -0.000017  -0.000001   0.000000
     3  H   -0.000761   0.000068   0.000000   0.000001   0.000000   0.000000
     4  C   -0.009544   0.022578  -0.000172  -0.000031  -0.000053   0.000000
     5  H   -0.001117   0.003357   0.000076   0.000004   0.000006   0.000000
     6  C   -0.009686  -0.009438  -0.021152  -0.001252   0.000129   0.000021
     7  S   -0.128140   0.014600   0.001948  -0.002345  -0.000230  -0.000001
     8  C    0.014600  -0.175553  -0.027788  -0.009510   0.025515   0.000247
     9  C    0.001948  -0.027788   0.161280   0.003297   0.000000  -0.005450
    10  H   -0.002345  -0.009510   0.003297   0.021429   0.005450   0.000000
    11  C   -0.000230   0.025515   0.000000   0.005450  -0.161280  -0.003297
    12  H   -0.000001   0.000247  -0.005450   0.000000  -0.003297  -0.021429
    13  C   -0.000006   0.000000  -0.025515  -0.000247   0.027788   0.009510
    14  S   -0.000201   0.048560   0.005375   0.000179  -0.005375  -0.000179
    15  C    0.000000  -0.001618  -0.000129  -0.000021   0.021152   0.001252
    16  C    0.000000   0.000111   0.000053   0.000000   0.000172   0.000031
    17  H    0.000000   0.000085  -0.000006   0.000000  -0.000076  -0.000004
    18  C    0.000000   0.000002   0.000001   0.000000  -0.000019   0.000017
    19  H    0.000000   0.000000   0.000000   0.000000   0.000000  -0.000001
    20  C    0.000000   0.000000  -0.000003   0.000000  -0.000063  -0.000089
    21  H    0.000000   0.000000   0.000000   0.000000   0.000001   0.000001
    22  S    0.000000   0.000006   0.000230   0.000001  -0.001948   0.002345
    23  H    0.005391   0.000084  -0.000001  -0.000001   0.000000   0.000000
             13         14         15         16         17         18
     1  C    0.000000   0.000012   0.000000   0.000000   0.000000   0.000000
     2  C   -0.000002   0.000272   0.000000   0.000000   0.000000   0.000000
     3  H    0.000000  -0.000001   0.000000   0.000000   0.000000   0.000000
     4  C   -0.000111  -0.000434   0.000003   0.000000   0.000001   0.000000
     5  H   -0.000085   0.001647   0.000002  -0.000001   0.000000   0.000000
     6  C    0.001618  -0.016178   0.000000  -0.000003  -0.000002   0.000000
     7  S   -0.000006  -0.000201   0.000000   0.000000   0.000000   0.000000
     8  C    0.000000   0.048560  -0.001618   0.000111   0.000085   0.000002
     9  C   -0.025515   0.005375  -0.000129   0.000053  -0.000006   0.000001
    10  H   -0.000247   0.000179  -0.000021   0.000000   0.000000   0.000000
    11  C    0.027788  -0.005375   0.021152   0.000172  -0.000076  -0.000019
    12  H    0.009510  -0.000179   0.001252   0.000031  -0.000004   0.000017
    13  C    0.175553  -0.048560   0.009438  -0.022578  -0.003357   0.001701
    14  S   -0.048560   0.000000   0.016178   0.000434  -0.001647  -0.000272
    15  C    0.009438   0.016178  -0.168841   0.020169  -0.009383   0.011355
    16  C   -0.022578   0.000434   0.020169   0.132730  -0.001578  -0.022270
    17  H   -0.003357  -0.001647  -0.009383  -0.001578   0.063289  -0.002706
    18  C    0.001701  -0.000272   0.011355  -0.022270  -0.002706  -0.064405
    19  H   -0.000068   0.000001   0.001051  -0.006920  -0.000585  -0.004468
    20  C    0.001302  -0.000012  -0.000580  -0.018498   0.000824   0.048398
    21  H   -0.000084   0.000000   0.000265   0.001478  -0.000076  -0.001307
    22  S   -0.014600   0.000201   0.009686   0.009544   0.001117   0.002868
    23  H    0.000000   0.000000   0.000000   0.000000   0.000000   0.000000
             19         20         21         22         23
     1  C    0.000000   0.000000   0.000000   0.000000   0.001606
     2  C    0.000000   0.000000   0.000000   0.000000   0.001307
     3  H    0.000000   0.000000   0.000000   0.000000   0.001043
     4  C    0.000000   0.000000   0.000000   0.000000  -0.001478
     5  H    0.000000   0.000000   0.000000   0.000000   0.000076
     6  C    0.000000   0.000000   0.000000   0.000000  -0.000265
     7  S    0.000000   0.000000   0.000000   0.000000   0.005391
     8  C    0.000000   0.000000   0.000000   0.000006   0.000084
     9  C    0.000000  -0.000003   0.000000   0.000230  -0.000001
    10  H    0.000000   0.000000   0.000000   0.000001  -0.000001
    11  C    0.000000  -0.000063   0.000001  -0.001948   0.000000
    12  H   -0.000001  -0.000089   0.000001   0.002345   0.000000
    13  C   -0.000068   0.001302  -0.000084  -0.014600   0.000000
    14  S    0.000001  -0.000012   0.000000   0.000201   0.000000
    15  C    0.001051  -0.000580   0.000265   0.009686   0.000000
    16  C   -0.006920  -0.018498   0.001478   0.009544   0.000000
    17  H   -0.000585   0.000824  -0.000076   0.001117   0.000000
    18  C   -0.004468   0.048398  -0.001307   0.002868   0.000000
    19  H    0.040349  -0.002153  -0.001043   0.000761   0.000000
    20  C   -0.002153   0.089154  -0.001606  -0.049379   0.000000
    21  H   -0.001043  -0.001606   0.046750  -0.005391   0.000000
    22  S    0.000761  -0.049379  -0.005391   0.128140   0.000000
    23  H    0.000000   0.000000   0.000000   0.000000  -0.046750
 Mulliken charges:
              1
     1  C    6.067297
     2  C    5.968895
     3  H    1.026924
     4  C    6.092873
     5  H    1.045894
     6  C    5.909980
     7  S   16.083580
     8  C    6.111697
     9  C    5.907874
    10  H    0.982971
    11  C    6.092126
    12  H    1.017029
    13  C    5.888303
    14  S   16.000000
    15  C    6.090020
    16  C    5.907127
    17  H    0.954106
    18  C    6.031105
    19  H    0.973076
    20  C    5.932703
    21  H    0.961011
    22  S   15.916420
    23  H    1.038989
 Sum of Mulliken charges = 128.00000
 Mulliken charges with hydrogens summed into heavy atoms:
              1
     1  C    7.106285
     2  C    6.995819
     4  C    7.138768
     6  C    5.909980
     7  S   16.083580
     8  C    6.111697
     9  C    6.890846
    11  C    7.109154
    13  C    5.888303
    14  S   16.000000
    15  C    6.090020
    16  C    6.861232
    18  C    7.004181
    20  C    6.893715
    22  S   15.916420
 Sum of Mulliken charges with hydrogens summed into heavy atoms = 128.00000
 Electronic spatial extent (au):  <R**2>=              0.0000
 Charge=              0.0000 electrons
 Dipole moment (field-independent basis, Debye):
    X=              0.0000    Y=             10.7969    Z=              0.0000  Tot=             10.7969
 Quadrupole moment (field-independent basis, Debye-Ang):
   XX=              0.0000   YY=              0.0000   ZZ=              0.0000
   XY=              0.0000   XZ=              0.0000   YZ=              4.1897
 Traceless Quadrupole moment (field-independent basis, Debye-Ang):
   XX=              0.0000   YY=              0.0000   ZZ=              0.0000
   XY=              0.0000   XZ=              0.0000   YZ=              4.1897
 Octapole moment (field-independent basis, Debye-Ang**2):
  XXX=              0.0000  YYY=            263.3968  ZZZ=              0.0000  XYY=              0.0000
  XXY=             10.6659  XXZ=              0.0000  XZZ=              0.0000  YZZ=             17.9981
  YYZ=              0.0000  XYZ=              0.0000
 Hexadecapole moment (field-independent basis, Debye-Ang**3):
 XXXX=              0.0000 YYYY=              0.0000 ZZZZ=              0.0000 XXXY=              0.0000
 XXXZ=              0.0000 YYYX=              0.0000 YYYZ=             55.6029 ZZZX=              0.0000
 ZZZY=             29.1803 XXYY=              0.0000 XXZZ=              0.0000 YYZZ=              0.0000
 XXYZ=              3.1603 YYXZ=              0.0000 ZZXY=              0.0000
 N-N= 1.179378275830D+03 E-N= 7.998826488588D-12  KE=-2.064354634771D-12
 Leave Link  601 at Thu Mar  3 17:48:45 2016, MaxMem=   65536000 cpu:       0.1
 (Enter /home/software/gaussian/gdvH23/gdv/l9999.exe)

 Test job not archived.
 1\1\GINC-ECUBA\SP\RCAM-B3LYP TD-FC\SVP\C12H8S3\DPADULA\03-Mar-2016\0\\
 #p td=(nstates=1) cam-b3lyp nosymm density=transition=1 iop(9/40=5) sv
 p\\Title\\0,1\C,0,0.,5.142111,0.13077303\C,0,0.,4.619111,1.39163303\H,
 0,0.,5.22791,2.29584403\C,0,0.,3.196401,1.39192703\H,0,0.,2.589532,2.2
 9810603\C,0,0.,2.655142,0.12852403\S,0,0.,3.911631,-1.07000597\C,0,0.,
 1.25333,-0.25936097\C,0,0.,0.708967,-1.52050997\H,0,0.,1.31295,-2.4284
 2797\C,0,0.,-0.708967,-1.52050997\H,0,0.,-1.31295,-2.42842797\C,0,0.,-
 1.25333,-0.25936097\S,0,0.,0.,0.94229203\C,0,0.,-2.655142,0.12852403\C
 ,0,0.,-3.196401,1.39192703\H,0,0.,-2.589532,2.29810603\C,0,0.,-4.61911
 1,1.39163303\H,0,0.,-5.22791,2.29584403\C,0,0.,-5.142111,0.13077303\H,
 0,0.,-6.190497,-0.16167997\S,0,0.,-3.911631,-1.07000597\H,0,0.,6.19049
 7,-0.16167997\\Version=ES64L-GDVRevH.23\HF=-1655.6910873\RMSD=8.789e-0
 9\PG=C02V [C2(S1),SGV(C12H8S2)]\\@


 DEMOCRATS BUY MOST OF THE BOOKS THAT HAVE BEEN
 BANNED; REPUBLICANS FORM CENSORSHIP COMMITTEES AND
 READ THEM AS A GROUP.
 Job cpu time:  0 days  0 hours  7 minutes 39.0 seconds.
 File lengths (MBytes):  RWF=     88 Int=      0 D2E=      0 Chk=      7 Scr=      1
 Normal termination of Gaussian DV at Thu Mar  3 17:48:45 2016.
