Title Card Required                                                     
SP        RB3LYP TD-FC                                                6-31G(d)            
Number of atoms                            I               12
Info1-9                                    I   N=           9
          21          21           0           0           0         111
           1         218        -501
Charge                                     I                0
Multiplicity                               I                1
Number of electrons                        I               42
Number of alpha electrons                  I               21
Number of beta electrons                   I               21
Number of basis functions                  I              102
Number of independent functions            I              102
Number of point charges in /Mol/           I                0
Number of translation vectors              I                0
Atomic numbers                             I   N=          12
           6           6           6           6           6           6
           1           1           1           1           1           1
Nuclear charges                            R   N=          12
  6.00000000E+00  6.00000000E+00  6.00000000E+00  6.00000000E+00  6.00000000E+00
  6.00000000E+00  1.00000000E+00  1.00000000E+00  1.00000000E+00  1.00000000E+00
  1.00000000E+00  1.00000000E+00
Current cartesian coordinates              R   N=          36
  0.00000000E+00  2.63615094E+00  3.77945225E+00  2.28297246E+00  1.31807452E+00
  3.77945225E+00  2.28297246E+00 -1.31807452E+00  3.77945225E+00  0.00000000E+00
 -2.63615094E+00  3.77945225E+00 -2.28297246E+00 -1.31807452E+00  3.77945225E+00
 -2.28297246E+00  1.31807452E+00  3.77945225E+00  0.00000000E+00  4.71411268E+00
  3.77945225E+00  4.08254164E+00  2.35705540E+00  3.77945225E+00  4.08254164E+00
 -2.35705540E+00  3.77945225E+00  0.00000000E+00 -4.71411268E+00  3.77945225E+00
 -4.08254164E+00 -2.35705540E+00  3.77945225E+00 -4.08254164E+00  2.35705540E+00
  3.77945225E+00
Force Field                                I                0
Int Atom Types                             I   N=          12
           0           0           0           0           0           0
           0           0           0           0           0           0
MM charges                                 R   N=          12
  0.00000000E+00  0.00000000E+00  0.00000000E+00  0.00000000E+00  0.00000000E+00
  0.00000000E+00  0.00000000E+00  0.00000000E+00  0.00000000E+00  0.00000000E+00
  0.00000000E+00  0.00000000E+00
Integer atomic weights                     I   N=          12
          12          12          12          12          12          12
           1           1           1           1           1           1
Real atomic weights                        R   N=          12
  1.20000000E+01  1.20000000E+01  1.20000000E+01  1.20000000E+01  1.20000000E+01
  1.20000000E+01  1.00782504E+00  1.00782504E+00  1.00782504E+00  1.00782504E+00
  1.00782504E+00  1.00782504E+00
Atom fragment info                         I   N=          12
           0           0           0           0           0           0
           0           0           0           0           0           0
Atom residue num                           I   N=          12
           0           0           0           0           0           0
           0           0           0           0           0           0
Nuclear spins                              I   N=          12
           0           0           0           0           0           0
           1           1           1           1           1           1
Nuclear ZEff                               R   N=          12
 -3.60000000E+00 -3.60000000E+00 -3.60000000E+00 -3.60000000E+00 -3.60000000E+00
 -3.60000000E+00 -1.00000000E+00 -1.00000000E+00 -1.00000000E+00 -1.00000000E+00
 -1.00000000E+00 -1.00000000E+00
Nuclear ZNuc                               R   N=          12
  6.00000000E+00  6.00000000E+00  6.00000000E+00  6.00000000E+00  6.00000000E+00
  6.00000000E+00  1.00000000E+00  1.00000000E+00  1.00000000E+00  1.00000000E+00
  1.00000000E+00  1.00000000E+00
Nuclear QMom                               R   N=          12
  0.00000000E+00  0.00000000E+00  0.00000000E+00  0.00000000E+00  0.00000000E+00
  0.00000000E+00  0.00000000E+00  0.00000000E+00  0.00000000E+00  0.00000000E+00
  0.00000000E+00  0.00000000E+00
Nuclear GFac                               R   N=          12
  0.00000000E+00  0.00000000E+00  0.00000000E+00  0.00000000E+00  0.00000000E+00
  0.00000000E+00  2.79284600E+00  2.79284600E+00  2.79284600E+00  2.79284600E+00
  2.79284600E+00  2.79284600E+00
MicOpt                                     I   N=          12
          -1          -1          -1          -1          -1          -1
          -1          -1          -1          -1          -1          -1
Number of contracted shells                I               36
Number of primitive shells                 I               90
Pure/Cartesian d shells                    I                1
Pure/Cartesian f shells                    I                0
Highest angular momentum                   I                2
Largest degree of contraction              I                6
Shell types                                I   N=          36
           0          -1          -1           2           0          -1
          -1           2           0          -1          -1           2
           0          -1          -1           2           0          -1
          -1           2           0          -1          -1           2
           0           0           0           0           0           0
           0           0           0           0           0           0
Number of primitives per shell             I   N=          36
           6           3           1           1           6           3
           1           1           6           3           1           1
           6           3           1           1           6           3
           1           1           6           3           1           1
           3           1           3           1           3           1
           3           1           3           1           3           1
Shell to atom map                          I   N=          36
           1           1           1           1           2           2
           2           2           3           3           3           3
           4           4           4           4           5           5
           5           5           6           6           6           6
           7           7           8           8           9           9
          10          10          11          11          12          12
Primitive exponents                        R   N=          90
  3.04752488E+03  4.57369518E+02  1.03948685E+02  2.92101553E+01  9.28666296E+00
  3.16392696E+00  7.86827235E+00  1.88128854E+00  5.44249258E-01  1.68714478E-01
  8.00000000E-01  3.04752488E+03  4.57369518E+02  1.03948685E+02  2.92101553E+01
  9.28666296E+00  3.16392696E+00  7.86827235E+00  1.88128854E+00  5.44249258E-01
  1.68714478E-01  8.00000000E-01  3.04752488E+03  4.57369518E+02  1.03948685E+02
  2.92101553E+01  9.28666296E+00  3.16392696E+00  7.86827235E+00  1.88128854E+00
  5.44249258E-01  1.68714478E-01  8.00000000E-01  3.04752488E+03  4.57369518E+02
  1.03948685E+02  2.92101553E+01  9.28666296E+00  3.16392696E+00  7.86827235E+00
  1.88128854E+00  5.44249258E-01  1.68714478E-01  8.00000000E-01  3.04752488E+03
  4.57369518E+02  1.03948685E+02  2.92101553E+01  9.28666296E+00  3.16392696E+00
  7.86827235E+00  1.88128854E+00  5.44249258E-01  1.68714478E-01  8.00000000E-01
  3.04752488E+03  4.57369518E+02  1.03948685E+02  2.92101553E+01  9.28666296E+00
  3.16392696E+00  7.86827235E+00  1.88128854E+00  5.44249258E-01  1.68714478E-01
  8.00000000E-01  1.87311370E+01  2.82539436E+00  6.40121692E-01  1.61277759E-01
  1.87311370E+01  2.82539436E+00  6.40121692E-01  1.61277759E-01  1.87311370E+01
  2.82539436E+00  6.40121692E-01  1.61277759E-01  1.87311370E+01  2.82539436E+00
  6.40121692E-01  1.61277759E-01  1.87311370E+01  2.82539436E+00  6.40121692E-01
  1.61277759E-01  1.87311370E+01  2.82539436E+00  6.40121692E-01  1.61277759E-01
Contraction coefficients                   R   N=          90
  1.83473713E-03  1.40373228E-02  6.88426223E-02  2.32184443E-01  4.67941348E-01
  3.62311985E-01 -1.19332420E-01 -1.60854152E-01  1.14345644E+00  1.00000000E+00
  1.00000000E+00  1.83473713E-03  1.40373228E-02  6.88426223E-02  2.32184443E-01
  4.67941348E-01  3.62311985E-01 -1.19332420E-01 -1.60854152E-01  1.14345644E+00
  1.00000000E+00  1.00000000E+00  1.83473713E-03  1.40373228E-02  6.88426223E-02
  2.32184443E-01  4.67941348E-01  3.62311985E-01 -1.19332420E-01 -1.60854152E-01
  1.14345644E+00  1.00000000E+00  1.00000000E+00  1.83473713E-03  1.40373228E-02
  6.88426223E-02  2.32184443E-01  4.67941348E-01  3.62311985E-01 -1.19332420E-01
 -1.60854152E-01  1.14345644E+00  1.00000000E+00  1.00000000E+00  1.83473713E-03
  1.40373228E-02  6.88426223E-02  2.32184443E-01  4.67941348E-01  3.62311985E-01
 -1.19332420E-01 -1.60854152E-01  1.14345644E+00  1.00000000E+00  1.00000000E+00
  1.83473713E-03  1.40373228E-02  6.88426223E-02  2.32184443E-01  4.67941348E-01
  3.62311985E-01 -1.19332420E-01 -1.60854152E-01  1.14345644E+00  1.00000000E+00
  1.00000000E+00  3.34946043E-02  2.34726953E-01  8.13757326E-01  1.00000000E+00
  3.34946043E-02  2.34726953E-01  8.13757326E-01  1.00000000E+00  3.34946043E-02
  2.34726953E-01  8.13757326E-01  1.00000000E+00  3.34946043E-02  2.34726953E-01
  8.13757326E-01  1.00000000E+00  3.34946043E-02  2.34726953E-01  8.13757326E-01
  1.00000000E+00  3.34946043E-02  2.34726953E-01  8.13757326E-01  1.00000000E+00
P(S=P) Contraction coefficients            R   N=          90
  0.00000000E+00  0.00000000E+00  0.00000000E+00  0.00000000E+00  0.00000000E+00
  0.00000000E+00  6.89990666E-02  3.16423961E-01  7.44308291E-01  1.00000000E+00
  0.00000000E+00  0.00000000E+00  0.00000000E+00  0.00000000E+00  0.00000000E+00
  0.00000000E+00  0.00000000E+00  6.89990666E-02  3.16423961E-01  7.44308291E-01
  1.00000000E+00  0.00000000E+00  0.00000000E+00  0.00000000E+00  0.00000000E+00
  0.00000000E+00  0.00000000E+00  0.00000000E+00  6.89990666E-02  3.16423961E-01
  7.44308291E-01  1.00000000E+00  0.00000000E+00  0.00000000E+00  0.00000000E+00
  0.00000000E+00  0.00000000E+00  0.00000000E+00  0.00000000E+00  6.89990666E-02
  3.16423961E-01  7.44308291E-01  1.00000000E+00  0.00000000E+00  0.00000000E+00
  0.00000000E+00  0.00000000E+00  0.00000000E+00  0.00000000E+00  0.00000000E+00
  6.89990666E-02  3.16423961E-01  7.44308291E-01  1.00000000E+00  0.00000000E+00
  0.00000000E+00  0.00000000E+00  0.00000000E+00  0.00000000E+00  0.00000000E+00
  0.00000000E+00  6.89990666E-02  3.16423961E-01  7.44308291E-01  1.00000000E+00
  0.00000000E+00  0.00000000E+00  0.00000000E+00  0.00000000E+00  0.00000000E+00
  0.00000000E+00  0.00000000E+00  0.00000000E+00  0.00000000E+00  0.00000000E+00
  0.00000000E+00  0.00000000E+00  0.00000000E+00  0.00000000E+00  0.00000000E+00
  0.00000000E+00  0.00000000E+00  0.00000000E+00  0.00000000E+00  0.00000000E+00
  0.00000000E+00  0.00000000E+00  0.00000000E+00  0.00000000E+00  0.00000000E+00
Coordinates of each shell                  R   N=         108
  0.00000000E+00  2.63615094E+00  3.77945225E+00  0.00000000E+00  2.63615094E+00
  3.77945225E+00  0.00000000E+00  2.63615094E+00  3.77945225E+00  0.00000000E+00
  2.63615094E+00  3.77945225E+00  2.28297246E+00  1.31807452E+00  3.77945225E+00
  2.28297246E+00  1.31807452E+00  3.77945225E+00  2.28297246E+00  1.31807452E+00
  3.77945225E+00  2.28297246E+00  1.31807452E+00  3.77945225E+00  2.28297246E+00
 -1.31807452E+00  3.77945225E+00  2.28297246E+00 -1.31807452E+00  3.77945225E+00
  2.28297246E+00 -1.31807452E+00  3.77945225E+00  2.28297246E+00 -1.31807452E+00
  3.77945225E+00  0.00000000E+00 -2.63615094E+00  3.77945225E+00  0.00000000E+00
 -2.63615094E+00  3.77945225E+00  0.00000000E+00 -2.63615094E+00  3.77945225E+00
  0.00000000E+00 -2.63615094E+00  3.77945225E+00 -2.28297246E+00 -1.31807452E+00
  3.77945225E+00 -2.28297246E+00 -1.31807452E+00  3.77945225E+00 -2.28297246E+00
 -1.31807452E+00  3.77945225E+00 -2.28297246E+00 -1.31807452E+00  3.77945225E+00
 -2.28297246E+00  1.31807452E+00  3.77945225E+00 -2.28297246E+00  1.31807452E+00
  3.77945225E+00 -2.28297246E+00  1.31807452E+00  3.77945225E+00 -2.28297246E+00
  1.31807452E+00  3.77945225E+00  0.00000000E+00  4.71411268E+00  3.77945225E+00
  0.00000000E+00  4.71411268E+00  3.77945225E+00  4.08254164E+00  2.35705540E+00
  3.77945225E+00  4.08254164E+00  2.35705540E+00  3.77945225E+00  4.08254164E+00
 -2.35705540E+00  3.77945225E+00  4.08254164E+00 -2.35705540E+00  3.77945225E+00
  0.00000000E+00 -4.71411268E+00  3.77945225E+00  0.00000000E+00 -4.71411268E+00
  3.77945225E+00 -4.08254164E+00 -2.35705540E+00  3.77945225E+00 -4.08254164E+00
 -2.35705540E+00  3.77945225E+00 -4.08254164E+00  2.35705540E+00  3.77945225E+00
 -4.08254164E+00  2.35705540E+00  3.77945225E+00
Constraint Structure                       R   N=          36
  0.00000000E+00  2.63615094E+00  3.77945225E+00  2.28297246E+00  1.31807452E+00
  3.77945225E+00  2.28297246E+00 -1.31807452E+00  3.77945225E+00  0.00000000E+00
 -2.63615094E+00  3.77945225E+00 -2.28297246E+00 -1.31807452E+00  3.77945225E+00
 -2.28297246E+00  1.31807452E+00  3.77945225E+00  0.00000000E+00  4.71411268E+00
  3.77945225E+00  4.08254164E+00  2.35705540E+00  3.77945225E+00  4.08254164E+00
 -2.35705540E+00  3.77945225E+00  0.00000000E+00 -4.71411268E+00  3.77945225E+00
 -4.08254164E+00 -2.35705540E+00  3.77945225E+00 -4.08254164E+00  2.35705540E+00
  3.77945225E+00
Num ILSW                                   I              100
ILSW                                       I   N=         100
           0           1           0           0           2           0
           0           0           0           0         402          -1
           0           0           0           0           0           0
           0           0           0           0           0           0
           1           1           0           0           0           0
           0           0      100000           0          -1           0
           0           0           0           0           0           0
           0           0           0           1           0           0
           0           0           1           0           0           0
           0           0           4          41           0           0
           0           0           5           0           0           0
           0           0           0           0           0           0
           0           0           0           0           0           0
           0           0           0           0           0           0
           0           0           0           0           0           0
           0           0           0           0           0           0
           0           0           0           0
Num RLSW                                   I               41
RLSW                                       R   N=          41
  8.00000000E-01  7.20000000E-01  1.00000000E+00  8.10000000E-01  2.00000000E-01
  0.00000000E+00  0.00000000E+00  1.00000000E+00  0.00000000E+00  0.00000000E+00
  0.00000000E+00  0.00000000E+00  1.00000000E+00  0.00000000E+00  0.00000000E+00
  0.00000000E+00  0.00000000E+00  1.00000000E+00  0.00000000E+00  0.00000000E+00
  0.00000000E+00  0.00000000E+00  1.00000000E+00  0.00000000E+00  0.00000000E+00
  0.00000000E+00  0.00000000E+00  1.00000000E+00  0.00000000E+00  0.00000000E+00
  0.00000000E+00  0.00000000E+00  1.00000000E+00  0.00000000E+00  0.00000000E+00
  0.00000000E+00  0.00000000E+00  0.00000000E+00  1.00000000E+00  1.00000000E+00
  0.00000000E+00
MxBond                                     I                3
NBond                                      I   N=          12
           3           3           3           3           3           3
           1           1           1           1           1           1
IBond                                      I   N=          36
           2           6           7           1           3           8
           2           4           9           3           5          10
           4           6          11           1           5          12
           1           0           0           2           0           0
           3           0           0           4           0           0
           5           0           0           6           0           0
RBond                                      R   N=          36
  1.50000000E+00  1.50000000E+00  1.00000000E+00  1.50000000E+00  1.50000000E+00
  1.00000000E+00  1.50000000E+00  1.50000000E+00  1.00000000E+00  1.50000000E+00
  1.50000000E+00  1.00000000E+00  1.50000000E+00  1.50000000E+00  1.00000000E+00
  1.50000000E+00  1.50000000E+00  1.00000000E+00  1.00000000E+00  0.00000000E+00
  0.00000000E+00  1.00000000E+00  0.00000000E+00  0.00000000E+00  1.00000000E+00
  0.00000000E+00  0.00000000E+00  1.00000000E+00  0.00000000E+00  0.00000000E+00
  1.00000000E+00  0.00000000E+00  0.00000000E+00  1.00000000E+00  0.00000000E+00
  0.00000000E+00
Virial Ratio                               R      2.010440739722899E+00
SCF Energy                                 R     -2.322480501840583E+02
CIS Energy                                 R     -2.320436520882261E+02
Total Energy                               R     -2.320436520882261E+02
Post-SCF wavefunction norm                 R      1.000000000000000E+00
RMS Density                                R      4.220135492300883E-09
External E-field                           R   N=          35
  0.00000000E+00  0.00000000E+00  0.00000000E+00  0.00000000E+00  0.00000000E+00
  0.00000000E+00  0.00000000E+00  0.00000000E+00  0.00000000E+00  0.00000000E+00
  0.00000000E+00  0.00000000E+00  0.00000000E+00  0.00000000E+00  0.00000000E+00
  0.00000000E+00  0.00000000E+00  0.00000000E+00  0.00000000E+00  0.00000000E+00
  0.00000000E+00  0.00000000E+00  0.00000000E+00  0.00000000E+00  0.00000000E+00
  0.00000000E+00  0.00000000E+00  0.00000000E+00  0.00000000E+00  0.00000000E+00
  0.00000000E+00  0.00000000E+00  0.00000000E+00  0.00000000E+00  0.00000000E+00
IOpCl                                      I                0
IROHF                                      I                0
Alpha Orbital Energies                     R   N=         102
 -1.01891489E+01 -1.01888817E+01 -1.01888806E+01 -1.01883234E+01 -1.01883222E+01
 -1.01880544E+01 -8.47352697E-01 -7.39638004E-01 -7.39637985E-01 -5.96189015E-01
 -5.96188346E-01 -5.16759458E-01 -4.55466605E-01 -4.39096306E-01 -4.16014378E-01
 -4.16013934E-01 -3.60441451E-01 -3.39343017E-01 -3.39341802E-01 -2.46939293E-01
 -2.46936011E-01  3.68982595E-03  3.69132921E-03  8.62217388E-02  1.41036403E-01
  1.41038191E-01  1.64617474E-01  1.79786566E-01  1.79788723E-01  1.86682243E-01
  3.02122089E-01  3.02123605E-01  3.20198349E-01  3.20202076E-01  4.74131876E-01
  5.26605534E-01  5.49145282E-01  5.51085097E-01  5.65447915E-01  5.93139347E-01
  6.01269670E-01  6.01300573E-01  6.01936076E-01  6.01937998E-01  6.25848568E-01
  6.25850867E-01  6.67089028E-01  6.67095339E-01  7.44492507E-01  8.31204302E-01
  8.31209429E-01  8.36511876E-01  8.56504783E-01  8.56505320E-01  9.32030556E-01
  9.39778371E-01  9.39778810E-01  9.58044397E-01  1.08479905E+00  1.08480913E+00
  1.14333631E+00  1.14334306E+00  1.20036035E+00  1.26129104E+00  1.39621871E+00
  1.43085494E+00  1.43087938E+00  1.48734125E+00  1.48734221E+00  1.51620416E+00
  1.51620419E+00  1.75301211E+00  1.79148190E+00  1.84551678E+00  1.88961094E+00
  1.95947362E+00  1.95947652E+00  2.06718579E+00  2.06718685E+00  2.15318148E+00
  2.15318196E+00  2.15614255E+00  2.15614816E+00  2.31070301E+00  2.31070367E+00
  2.32447089E+00  2.54138123E+00  2.54138171E+00  2.65974637E+00  2.70187324E+00
  2.70187574E+00  2.72426839E+00  2.72426940E+00  2.75517485E+00  3.01965357E+00
  3.40543418E+00  4.08375670E+00  4.11532238E+00  4.11532435E+00  4.32796591E+00
  4.32796676E+00  4.66421375E+00
Alpha MO coefficients                      R   N=       10404
  4.05685358E-01  1.97664747E-02  4.89387729E-14  1.18444624E-04  4.80194498E-16
 -2.54507808E-03 -2.56961562E-13 -3.48245147E-04  3.16282879E-16 -4.02779602E-03
 -3.94365375E-03 -4.06705658E-03 -8.34644263E-15 -8.83245465E-16  6.54462662E-16
  4.04856651E-01  1.97247670E-02  1.03018875E-04  5.92430592E-05 -3.30061858E-17
 -2.52842823E-03 -3.05231936E-04 -1.74808748E-04  1.48810800E-16 -3.95725169E-03
 -3.99934322E-03 -4.05920284E-03  4.22968995E-05 -6.04441732E-16 -3.93291361E-16
  4.04856651E-01  1.97247670E-02  1.03018875E-04 -5.92430593E-05 -3.09021987E-16
 -2.52842823E-03 -3.05231936E-04  1.74808749E-04 -2.59793661E-16 -3.95725169E-03
 -3.99934322E-03 -4.05920284E-03 -4.22968995E-05 -7.11305108E-17 -1.47610292E-16
  4.05685358E-01  1.97664747E-02  3.72405880E-14 -1.18444624E-04  6.82204856E-16
 -2.54507808E-03 -1.91462292E-13  3.48245147E-04  3.59764667E-16 -4.02779602E-03
 -3.94365375E-03 -4.06705658E-03  2.83898882E-15 -1.18847120E-16 -5.83896298E-16
  4.04856652E-01  1.97247670E-02 -1.03018875E-04 -5.92430593E-05 -2.80340734E-16
 -2.52842823E-03  3.05231936E-04  1.74808749E-04  1.47943159E-16 -3.95725169E-03
 -3.99934322E-03 -4.05920284E-03  4.22968995E-05  1.89607444E-17  6.47145661E-16
  4.04856652E-01  1.97247670E-02 -1.03018875E-04  5.92430592E-05 -4.23949338E-16
 -2.52842823E-03  3.05231936E-04 -1.74808748E-04 -5.99579808E-16 -3.95725169E-03
 -3.99934322E-03 -4.05920284E-03 -4.22968995E-05  6.52567010E-17 -1.65343447E-16
 -1.87097050E-04  8.87471649E-04 -1.86797807E-04  8.86538159E-04 -1.86797807E-04
  8.86538159E-04 -1.87097049E-04  8.87471649E-04 -1.86797807E-04  8.86538159E-04
 -1.86797807E-04  8.86538159E-04  5.73470440E-01  2.84249427E-02  1.14237125E-12
 -4.96205305E-05  8.90078726E-17 -5.87463025E-03 -5.91347819E-12  3.89667077E-04
  3.79545054E-17 -5.54706329E-03 -5.52973131E-03 -5.57482105E-03 -1.62292747E-13
  3.20395285E-16  4.39884764E-16  2.86148979E-01  1.41820680E-02  1.09229085E-04
 -2.37993414E-04  1.28560063E-16 -2.90784910E-03 -5.14821414E-04  1.25700480E-03
 -4.68211754E-17 -2.78902287E-03 -2.73947652E-03 -2.78216974E-03  2.24950376E-05
  1.69469613E-16 -3.00431845E-17 -2.86148983E-01 -1.41820682E-02 -1.09229085E-04
 -2.37993413E-04 -9.40013326E-17  2.90784914E-03  5.14821409E-04  1.25700480E-03
  9.19171849E-17  2.78902290E-03  2.73947656E-03  2.78216978E-03  2.24950376E-05
  2.21767229E-16 -4.54830030E-16 -5.73470440E-01 -2.84249427E-02  1.11578200E-12
 -4.96205304E-05  1.26783434E-16  5.87463025E-03 -5.74021490E-12  3.89667077E-04
  2.15947651E-16  5.54706330E-03  5.52973131E-03  5.57482105E-03  1.48088426E-13
 -2.97441961E-17 -1.63466027E-16 -2.86148979E-01 -1.41820680E-02  1.09229085E-04
 -2.37993414E-04  1.28986127E-16  2.90784910E-03 -5.14821414E-04  1.25700480E-03
  1.71636730E-16  2.78902287E-03  2.73947652E-03  2.78216974E-03 -2.24950376E-05
 -1.16732081E-16  1.73259437E-17  2.86148982E-01  1.41820682E-02 -1.09229085E-04
 -2.37993413E-04 -5.15382095E-17 -2.90784914E-03  5.14821409E-04  1.25700480E-03
 -1.68910074E-16 -2.78902290E-03 -2.73947655E-03 -2.78216978E-03 -2.24950376E-05
 -1.46203763E-16  4.24999614E-16 -2.37805258E-04  9.02567389E-04 -1.18464283E-04
  4.52593895E-04  1.18464284E-04 -4.52593902E-04  2.37805258E-04 -9.02567389E-04
  1.18464283E-04 -4.52593896E-04 -1.18464284E-04  4.52593901E-04  2.22983197E-09
  1.10527390E-10 -3.01046451E-04 -1.82913263E-13 -5.02579192E-16 -2.33548024E-11
  1.55421895E-03  1.81322152E-12  9.64191378E-16 -2.15597239E-11 -2.14912311E-11
 -2.16770515E-11  4.15885322E-05  5.48431749E-16  2.04977726E-16  4.96301731E-01
  2.45991977E-02 -1.12264684E-04  1.08985807E-04  1.92901742E-17 -5.07054550E-03
  6.74707966E-04 -5.07782748E-04 -1.07492947E-15 -4.77416063E-03 -4.81293917E-03
 -4.82492108E-03 -2.80958391E-06 -1.40639885E-16 -1.12118887E-16  4.96301729E-01
  2.45991976E-02 -1.12264685E-04 -1.08985809E-04 -1.78869071E-16 -5.07054548E-03
  6.74707971E-04  5.07782757E-04  7.53731436E-16 -4.77416061E-03 -4.81293915E-03
 -4.82492105E-03  2.80958407E-06 -1.94749067E-17  2.55707638E-16 -2.08598442E-09
 -1.03466779E-10 -3.01046451E-04 -2.02660172E-13  1.45399127E-16  2.20306394E-11
  1.55421895E-03  1.78583526E-12 -1.05647210E-16  2.01659595E-11  2.01099997E-11
  2.02524928E-11 -4.15885322E-05 -5.43692718E-16 -3.03731959E-16 -4.96301731E-01
 -2.45991977E-02 -1.12264684E-04  1.08985807E-04 -3.04787989E-16  5.07054550E-03
  6.74707966E-04 -5.07782748E-04 -6.96219117E-17  4.77416063E-03  4.81293917E-03
  4.82492107E-03  2.80958392E-06  1.98919224E-16  1.43985609E-16 -4.96301729E-01
 -2.45991976E-02 -1.12264685E-04 -1.08985808E-04  2.65955913E-16  5.07054548E-03
  6.74707971E-04  5.07782757E-04 -4.67358398E-16  4.77416061E-03  4.81293915E-03
  4.82492105E-03 -2.80958410E-06 -5.47847710E-17 -2.70499459E-16 -9.35215879E-13
  3.46600327E-12 -2.05690019E-04  7.82403626E-04 -2.05690018E-04  7.82403623E-04
  8.70338534E-13 -3.17694090E-12  2.05690019E-04 -7.82403626E-04  2.05690018E-04
 -7.82403622E-04  5.72907508E-01  2.88518006E-02  7.30781495E-12 -2.69540035E-04
  3.82020390E-17 -1.15065924E-02 -4.53851804E-11  2.42897668E-03  1.89687960E-16
 -5.01880100E-03 -5.27060141E-03 -5.43432515E-03 -3.74791627E-12 -3.46369718E-16
 -3.20478954E-16 -2.87039386E-01 -1.44544483E-02  2.18621871E-04 -1.09473028E-04
  2.75388960E-16  5.75695908E-03 -1.68539668E-03  4.91239988E-04 -3.00490755E-17
  2.53100277E-03  2.62522172E-03  2.72303920E-03  1.15265007E-04 -3.73179451E-16
  1.09963692E-16 -2.87039355E-01 -1.44544468E-02  2.18621862E-04  1.09473042E-04
  3.66205703E-16  5.75695846E-03 -1.68539659E-03 -4.91240094E-04  3.20252687E-16
  2.53100249E-03  2.62522145E-03  2.72303890E-03 -1.15265002E-04 -2.18074303E-16
 -6.36046504E-16  5.72907508E-01  2.88518006E-02 -7.29298083E-12  2.69540035E-04
 -9.76346868E-17 -1.15065924E-02  4.53101067E-11 -2.42897667E-03 -2.86767462E-16
 -5.01880100E-03 -5.27060141E-03 -5.43432515E-03 -3.74504826E-12 -6.02470778E-16
 -4.44731921E-16 -2.87039386E-01 -1.44544483E-02 -2.18621871E-04  1.09473028E-04
 -2.59131788E-16  5.75695907E-03  1.68539668E-03 -4.91239989E-04 -4.44006621E-16
  2.53100277E-03  2.62522172E-03  2.72303920E-03  1.15265007E-04 -1.64755425E-16
 -2.22462324E-16 -2.87039355E-01 -1.44544468E-02 -2.18621862E-04 -1.09473042E-04
 -8.87445516E-17  5.75695846E-03  1.68539659E-03  4.91240093E-04 -5.06473443E-17
  2.53100249E-03  2.62522145E-03  2.72303891E-03 -1.15265002E-04 -3.08401002E-16
 -9.85037817E-16 -2.05547508E-04  6.38667001E-04  1.03041415E-04 -3.20617013E-04
  1.03041403E-04 -3.20616979E-04 -2.05547508E-04  6.38667001E-04  1.03041414E-04
 -3.20617014E-04  1.03041403E-04 -3.20616979E-04  1.78633744E-08  8.99695276E-10
 -2.35697616E-04 -8.40297423E-12  1.54256978E-16 -3.60825854E-10  1.46429252E-03
  7.69539197E-11  4.77538765E-16 -1.56483156E-10 -1.64321333E-10 -1.69408773E-10
  1.20943516E-04 -4.94427455E-16 -2.90070279E-16  4.96490782E-01  2.50029065E-02
 -1.43136183E-04 -2.18735897E-04  1.17874374E-17 -9.96714625E-03  1.45540307E-03
  1.68572011E-03 -2.58054073E-16 -4.55863680E-03 -4.35891253E-03 -4.70966120E-03
 -7.87742419E-05  4.74866705E-16 -5.27518228E-16 -4.96490800E-01 -2.50029074E-02
  1.43136196E-04 -2.18735891E-04 -1.17938090E-16  9.96714660E-03 -1.45540318E-03
  1.68572008E-03  1.01220070E-17  4.55863696E-03  4.35891269E-03  4.70966137E-03
 -7.87742490E-05  4.41518535E-17 -5.82282071E-16  1.76443480E-08  8.88464473E-10
  2.35697616E-04  8.29129513E-12 -2.17219457E-16 -3.52134376E-10 -1.46429252E-03
 -7.35161319E-11  1.52859145E-16 -1.54590906E-10 -1.62349544E-10 -1.67409050E-10
  1.20943516E-04  4.32555468E-16 -3.35105333E-16  4.96490782E-01  2.50029065E-02
  1.43136183E-04  2.18735897E-04 -3.45284765E-17 -9.96714626E-03 -1.45540308E-03
 -1.68572011E-03  1.23530216E-17 -4.55863681E-03 -4.35891253E-03 -4.70966121E-03
 -7.87742419E-05  1.95413263E-16  1.85574029E-16 -4.96490800E-01 -2.50029074E-02
 -1.43136196E-04  2.18735891E-04  1.47046880E-16  9.96714661E-03  1.45540318E-03
 -1.68572008E-03 -4.96403394E-16  4.55863696E-03  4.35891269E-03  4.70966137E-03
 -7.87742491E-05  2.44499549E-16 -5.71054892E-16 -6.44402148E-12  1.96531339E-11
 -1.78160730E-04  5.53836157E-04  1.78160736E-04 -5.53836177E-04 -6.29718011E-12
  1.99476246E-11 -1.78160730E-04  5.53836156E-04  1.78160737E-04 -5.53836176E-04
 -4.05010723E-01 -2.10211321E-02 -4.83987452E-14  2.81212167E-04  1.69549778E-16
  2.04301835E-02  2.98995750E-13 -8.46148150E-03  4.43235145E-16  3.31141958E-03
  3.53478475E-03  3.62197444E-03  2.32728099E-14 -7.44810072E-17 -7.15087764E-17
  4.05839103E-01  2.10622149E-02 -2.43468920E-04 -1.40869135E-04  2.89526313E-18
 -2.04386791E-02  7.32768225E-03  4.23214774E-03 -4.63626895E-16 -3.48697455E-03
 -3.37524247E-03 -3.63003069E-03 -1.11660275E-04 -1.22765037E-16  2.45975354E-17
 -4.05839104E-01 -2.10622149E-02  2.43468920E-04 -1.40869135E-04 -1.60063378E-16
  2.04386791E-02 -7.32768225E-03  4.23214774E-03  2.14491615E-16  3.48697455E-03
  3.37524247E-03  3.63003069E-03 -1.11660275E-04 -7.24962806E-17 -4.15300880E-17
  4.05010724E-01  2.10211321E-02  3.80120877E-14  2.81212167E-04  7.18472857E-17
 -2.04301835E-02 -2.32143186E-13 -8.46148150E-03 -2.68848661E-16 -3.31141958E-03
 -3.53478475E-03 -3.62197444E-03  2.27571012E-14 -1.20977445E-16 -1.50615090E-16
 -4.05839103E-01 -2.10622148E-02 -2.43468920E-04 -1.40869135E-04 -4.84863803E-17
  2.04386791E-02  7.32768225E-03  4.23214774E-03  6.37463171E-17  3.48697455E-03
  3.37524247E-03  3.63003069E-03  1.11660275E-04  1.78836537E-16 -8.94952465E-18
  4.05839103E-01  2.10622148E-02  2.43468920E-04 -1.40869135E-04 -3.39714978E-17
 -2.04386791E-02 -7.32768225E-03  4.23214774E-03 -4.18455823E-16 -3.48697455E-03