 Entering Gaussian System, Link 0=gdv
 Input=mon1.com
 Output=mon1.log
 Initial command:
 /home/software/gaussian/gdvH23/gdv/l1.exe "/home/dpadula/gauscr/Gau-26301.inp" -scrdir="/home/dpadula/gauscr/"
 Entering Link 1 = /home/software/gaussian/gdvH23/gdv/l1.exe PID=     26303.
  
 Copyright (c) 1988,1990,1992,1993,1995,1998,2003,2009,2012,
            Gaussian, Inc.  All Rights Reserved.
  
 This is the private, development version of
 the Gaussian(R) DV system of programs. It is based on
 the Gaussian(R) 09 system (copyright 2009, Gaussian, Inc.),
 the Gaussian(R) 03 system (copyright 2003, Gaussian, Inc.),
 the Gaussian(R) 98 system (copyright 1998, Gaussian, Inc.),
 the Gaussian(R) 94 system (copyright 1995, Gaussian, Inc.),
 the Gaussian 92(TM) system (copyright 1992, Gaussian, Inc.),
 the Gaussian 90(TM) system (copyright 1990, Gaussian, Inc.),
 the Gaussian 88(TM) system (copyright 1988, Gaussian, Inc.),
 the Gaussian 86(TM) system (copyright 1986, Carnegie Mellon
 University), and the Gaussian 82(TM) system (copyright 1983,
 Carnegie Mellon University). Gaussian is a federally registered
 trademark of Gaussian, Inc.
  
 This software contains proprietary and confidential information,
 including trade secrets, belonging to Gaussian, Inc.
  
 This software is provided under written license and may be
 used, copied, transmitted, or stored only in accord with that
 written license.
  
 The following legend is applicable only to US Government
 contracts under FAR:
  
                    RESTRICTED RIGHTS LEGEND
  
 Use, reproduction and disclosure by the US Government is
 subject to restrictions as set forth in subparagraphs (a)
 and (c) of the Commercial Computer Software - Restricted
 Rights clause in FAR 52.227-19.
  
 Gaussian, Inc.
 340 Quinnipiac St., Bldg. 40, Wallingford CT 06492
  
  
 ---------------------------------------------------------------
 Warning -- This program may not be used in any manner that
 competes with the business of Gaussian, Inc. or will provide
 assistance to any competitor of Gaussian, Inc.  The licensee
 of this program is prohibited from giving any competitor of
 Gaussian, Inc. access to this program.  By using this program,
 the user acknowledges that Gaussian, Inc. is engaged in the
 business of creating and licensing software in the field of
 computational chemistry and represents and warrants to the
 licensee that it is not a competitor of Gaussian, Inc. and that
 it will not use this program in any manner prohibited above.
 ---------------------------------------------------------------
  

 Cite this work as:
 Gaussian Development Version, Revision H.23,
 M. J. Frisch, G. W. Trucks, H. B. Schlegel, G. E. Scuseria, 
 M. A. Robb, J. R. Cheeseman, G. Scalmani, V. Barone, B. Mennucci, 
 G. A. Petersson, H. Nakatsuji, M. Caricato, X. Li, H. P. Hratchian, 
 A. F. Izmaylov, J. Bloino, G. Zheng, J. L. Sonnenberg, W. Liang, 
 M. Hada, M. Ehara, K. Toyota, R. Fukuda, J. Hasegawa, M. Ishida, 
 T. Nakajima, Y. Honda, O. Kitao, H. Nakai, T. Vreven, 
 J. A. Montgomery, Jr., J. E. Peralta, F. Ogliaro, M. Bearpark, 
 J. J. Heyd, E. Brothers, K. N. Kudin, V. N. Staroverov, T. Keith, 
 R. Kobayashi, J. Normand, K. Raghavachari, A. Rendell, J. C. Burant, 
 S. S. Iyengar, J. Tomasi, M. Cossi, N. Rega, J. M. Millam, M. Klene, 
 J. E. Knox, J. B. Cross, V. Bakken, C. Adamo, J. Jaramillo, 
 R. Gomperts, R. E. Stratmann, O. Yazyev, A. J. Austin, R. Cammi, 
 C. Pomelli, J. W. Ochterski, R. L. Martin, K. Morokuma, 
 V. G. Zakrzewski, G. A. Voth, P. Salvador, J. J. Dannenberg, 
 S. Dapprich, P. V. Parandekar, N. J. Mayhall, A. D. Daniels, 
 O. Farkas, J. B. Foresman, J. V. Ortiz, J. Cioslowski, 
 and D. J. Fox, Gaussian, Inc., Wallingford CT, 2010.
 
 ******************************************
 Gaussian DV:  ES64L-GDVRevH.23 23-Jul-2012
                21-Feb-2016 
 ******************************************
 %nprocshared=4
 Will use up to    4 processors via shared memory.
 %chk=mon1.chk
 %mem=2GB
 ----------------------------------------------------------------------
 #p td=nstates=12 b3lyp/6-31g(d) Iop(9/40=5) density(transition=3) nosy
 mm
 ----------------------------------------------------------------------
 1/38=1/1;
 2/12=2,15=1,17=6,18=5,40=1/2;
 3/5=1,6=6,7=1,11=9,16=1,25=1,30=1,74=-5/1,2,8,3;
 4//1;
 5/5=2,38=5/2;
 8/6=1,10=2,108=12/1;
 9/40=5,41=12,42=1,70=2/14;
 6/7=2,8=2,9=2,10=2,29=3/1;
 99/5=1,9=1/99;
 Leave Link    1 at Sun Feb 21 11:08:29 2016, MaxMem=  268435456 cpu:       0.1
 (Enter /home/software/gaussian/gdvH23/gdv/l101.exe)
 -------------------
 Title Card Required
 -------------------
 Symbolic Z-matrix:
 Charge =  0 Multiplicity = 1
 C                     0.        1.39499   2. 
 C                     1.2081    0.6975    2. 
 C                     1.2081   -0.6975    2. 
 C                     0.       -1.39499   2. 
 C                    -1.2081   -0.6975    2. 
 C                    -1.2081    0.6975    2. 
 H                     0.        2.4946    2. 
 H                     2.16039   1.2473    2. 
 H                     2.16039  -1.2473    2. 
 H                     0.       -2.4946    2. 
 H                    -2.16039  -1.2473    2. 
 H                    -2.16039   1.2473    2. 
 
 NAtoms=     12 NQM=        0 NQMF=       0 NMMI=     12 NMMIF=      0
                NMic=       0 NMicF=      0.
                    Isotopes and Nuclear Properties:
 (Nuclear quadrupole moments (NQMom) in fm**2, nuclear magnetic moments (NMagM)
  in nuclear magnetons)

  Atom         1           2           3           4           5           6           7           8           9          10
 IAtWgt=          12          12          12          12          12          12           1           1           1           1
 AtmWgt=  12.0000000  12.0000000  12.0000000  12.0000000  12.0000000  12.0000000   1.0078250   1.0078250   1.0078250   1.0078250
 NucSpn=           0           0           0           0           0           0           1           1           1           1
 AtZEff=   0.0000000   0.0000000   0.0000000   0.0000000   0.0000000   0.0000000   0.0000000   0.0000000   0.0000000   0.0000000
 NQMom=    0.0000000   0.0000000   0.0000000   0.0000000   0.0000000   0.0000000   0.0000000   0.0000000   0.0000000   0.0000000
 NMagM=    0.0000000   0.0000000   0.0000000   0.0000000   0.0000000   0.0000000   2.7928460   2.7928460   2.7928460   2.7928460
 AtZNuc=   6.0000000   6.0000000   6.0000000   6.0000000   6.0000000   6.0000000   1.0000000   1.0000000   1.0000000   1.0000000

  Atom        11          12
 IAtWgt=           1           1
 AtmWgt=   1.0078250   1.0078250
 NucSpn=           1           1
 AtZEff=   0.0000000   0.0000000
 NQMom=    0.0000000   0.0000000
 NMagM=    2.7928460   2.7928460
 AtZNuc=   1.0000000   1.0000000
 Leave Link  101 at Sun Feb 21 11:08:29 2016, MaxMem=  268435456 cpu:       0.1
 (Enter /home/software/gaussian/gdvH23/gdv/l202.exe)
                          Input orientation:                          
 ---------------------------------------------------------------------
 Center     Atomic      Atomic             Coordinates (Angstroms)
 Number     Number       Type             X           Y           Z
 ---------------------------------------------------------------------
      1          6           0        0.000000    1.394991    2.000000
      2          6           0        1.208097    0.697495    2.000000
      3          6           0        1.208097   -0.697495    2.000000
      4          6           0        0.000000   -1.394991    2.000000
      5          6           0       -1.208097   -0.697495    2.000000
      6          6           0       -1.208097    0.697495    2.000000
      7          1           0        0.000000    2.494601    2.000000
      8          1           0        2.160388    1.247300    2.000000
      9          1           0        2.160388   -1.247300    2.000000
     10          1           0        0.000000   -2.494601    2.000000
     11          1           0       -2.160388   -1.247300    2.000000
     12          1           0       -2.160388    1.247300    2.000000
 ---------------------------------------------------------------------
                    Distance matrix (angstroms):
                    1          2          3          4          5
     1  C    0.000000
     2  C    1.394991   0.000000
     3  C    2.416195   1.394990   0.000000
     4  C    2.789982   2.416195   1.394991   0.000000
     5  C    2.416195   2.789980   2.416194   1.394991   0.000000
     6  C    1.394991   2.416194   2.789980   2.416195   1.394990
     7  H    1.099610   2.165430   3.413060   3.889592   3.413060
     8  H    2.165430   1.099611   2.165430   3.413060   3.889591
     9  H    3.413060   2.165430   1.099611   2.165430   3.413060
    10  H    3.889592   3.413060   2.165430   1.099610   2.165430
    11  H    3.413060   3.889591   3.413060   2.165430   1.099611
    12  H    2.165430   3.413060   3.889591   3.413060   2.165430
                    6          7          8          9         10
     6  C    0.000000
     7  H    2.165430   0.000000
     8  H    3.413060   2.494601   0.000000
     9  H    3.889591   4.320775   2.494600   0.000000
    10  H    3.413060   4.989202   4.320775   2.494601   0.000000
    11  H    2.165430   4.320775   4.989202   4.320776   2.494601
    12  H    1.099611   2.494601   4.320776   4.989202   4.320775
                   11         12
    11  H    0.000000
    12  H    2.494600   0.000000
 Symmetry turned off by external request.
 Stoichiometry    C6H6
 Framework group  D6H[3C2'(HC.CH)]
 Deg. of freedom     2
 Full point group                 D6H     NOp  24
 Rotational constants (GHZ):      5.6866511      5.6866489      2.8433250
 Leave Link  202 at Sun Feb 21 11:08:29 2016, MaxMem=  268435456 cpu:       0.0
 (Enter /home/software/gaussian/gdvH23/gdv/l301.exe)
 Standard basis: 6-31G(d) (6D, 7F)
 Ernie: Thresh=  0.10000D-02 Tol=  0.10000D-05 Strict=F.
   102 basis functions,   192 primitive gaussians,   102 cartesian basis functions
    21 alpha electrons       21 beta electrons
       nuclear repulsion energy       203.0353199391 Hartrees.
 IExCor=  402 DFT=T Ex+Corr=B3LYP ExCW=0 ScaHFX=  0.200000
 ScaDFX=  0.800000  0.720000  1.000000  0.810000 ScalE2=  1.000000  1.000000
 IRadAn=      0 IRanWt=     -1 IRanGd=            0 ICorTp=0 IEmpDi=  4
 NAtoms=   12 NActive=   12 NUniq=   12 SFac= 1.00D+00 NAtFMM=   60 NAOKFM=F Big=F
 Integral buffers will be    131072 words long.
 Regular integral format.
 Two-electron integral symmetry is turned off.
 Leave Link  301 at Sun Feb 21 11:08:29 2016, MaxMem=  268435456 cpu:       0.1
 (Enter /home/software/gaussian/gdvH23/gdv/l302.exe)
 NPDir=0 NMtPBC=     1 NCelOv=     1 NCel=       1 NClECP=     1 NCelD=      1
         NCelK=      1 NCelE2=     1 NClLst=     1 CellRange=     0.0.
 One-electron integrals computed using PRISM.
 NBasis=   102 RedAO= T EigKep=  5.19D-04  NBF=   102
 NBsUse=   102 1.00D-06 EigRej= -1.00D+00 NBFU=   102
 Precomputing XC quadrature grid using
 IXCGrd= 4 IRadAn=           0 IRanWt=          -1 IRanGd=           0 AccXCQ= 0.00D+00.
 Generated NRdTot=       0 NPtTot=           0 NUsed=           0 NTot=          32
 NSgBfM=   102   102   102   102   102 NAtAll=    12    12.
 Leave Link  302 at Sun Feb 21 11:08:29 2016, MaxMem=  268435456 cpu:       0.4
 (Enter /home/software/gaussian/gdvH23/gdv/l308.exe)
 Leave Link  308 at Sun Feb 21 11:08:29 2016, MaxMem=  268435456 cpu:       0.0
 (Enter /home/software/gaussian/gdvH23/gdv/l303.exe)
 DipDrv:  MaxL=1.
 Leave Link  303 at Sun Feb 21 11:08:29 2016, MaxMem=  268435456 cpu:       0.0
 (Enter /home/software/gaussian/gdvH23/gdv/l401.exe)
 ExpMin= 1.61D-01 ExpMax= 3.05D+03 ExpMxC= 4.57D+02 IAcc=1 IRadAn=         1 AccDes= 0.00D+00
 Harris functional with IExCor=  402 and IRadAn=       1 diagonalized for initial guess.
 HarFok:  IExCor=  402 AccDes= 0.00D+00 IRadAn=         1 IDoV= 1 UseB2=F ITyADJ=14
 ICtDFT=  3500011 ScaDFX=  1.000000  1.000000  1.000000  1.000000
 FoFCou: FMM=F IPFlag=           0 FMFlag=      100000 FMFlg1=           0
         NFxFlg=           0 DoJE=T BraDBF=F KetDBF=T FulRan=T
         wScrn=  0.000000 ICntrl=     500 IOpCl=  0 I1Cent=   200000004 NGrid=           0
         NMat0=    1 NMatS0=      1 NMatT0=    0 NMatD0=    1 NMtDS0=    0 NMtDT0=    0
 Symmetry not used in FoFCou.
 Harris En= -232.275049793350    
 JPrj=0 DoOrth=F DoCkMO=F.
 Leave Link  401 at Sun Feb 21 11:08:30 2016, MaxMem=  268435456 cpu:       0.6
 (Enter /home/software/gaussian/gdvH23/gdv/l502.exe)
 Closed shell SCF:
 Using DIIS extrapolation, IDIIS=  1040.
 Two-electron integral symmetry not used.
 Keep R1 ints in memory in canonical form, NReq=14773907.
 IVT=       51010 IEndB=       51010 NGot=   268435456 MDV=   254584816
 LenX=   254584816 LenY=   254573971
 Requested convergence on RMS density matrix=1.00D-08 within 128 cycles.
 Requested convergence on MAX density matrix=1.00D-06.
 Requested convergence on             energy=1.00D-06.
 No special actions if energy rises.
 FoFCou: FMM=F IPFlag=           0 FMFlag=           0 FMFlg1=           0
         NFxFlg=           0 DoJE=F BraDBF=F KetDBF=F FulRan=T
         wScrn=  0.000000 ICntrl=     600 IOpCl=  0 I1Cent=           0 NGrid=           0
         NMat0=    1 NMatS0=   5253 NMatT0=    0 NMatD0=    1 NMtDS0=    0 NMtDT0=    0
 Symmetry not used in FoFCou.
 Integral accuracy reduced to 1.0D-05 until final iterations.

 Cycle   1  Pass 0  IDiag  1:
 E= -232.093035543252    
 DIIS: error= 4.79D-02 at cycle   1 NSaved=   1.
 NSaved= 1 IEnMin= 1 EnMin= -232.093035543252     IErMin= 1 ErrMin= 4.79D-02
 ErrMax= 4.79D-02  0.00D+00 EMaxC= 1.00D-01 BMatC= 1.35D-01 BMatP= 1.35D-01
 IDIUse=3 WtCom= 5.21D-01 WtEn= 4.79D-01
 Coeff-Com:  0.100D+01
 Coeff-En:   0.100D+01
 Coeff:      0.100D+01
 Gap=     0.250 Goal=   None    Shift=    0.000
 GapD=    0.250 DampG=1.000 DampE=0.500 DampFc=0.5000 IDamp=-1.
 Damping current iteration by 5.00D-01
 RMSDP=8.40D-03 MaxDP=1.15D-01              OVMax= 1.61D-01

 Cycle   2  Pass 0  IDiag  1:
 E= -232.165932478818     Delta-E=       -0.072896935566 Rises=F Damp=T
 DIIS: error= 7.96D-03 at cycle   2 NSaved=   2.
 NSaved= 2 IEnMin= 2 EnMin= -232.165932478818     IErMin= 2 ErrMin= 7.96D-03
 ErrMax= 7.96D-03  0.00D+00 EMaxC= 1.00D-01 BMatC= 6.56D-03 BMatP= 1.35D-01
 IDIUse=3 WtCom= 9.20D-01 WtEn= 7.96D-02
 Coeff-Com:  0.159D-01 0.984D+00
 Coeff-En:   0.255D-01 0.974D+00
 Coeff:      0.167D-01 0.983D+00
 Gap=     0.254 Goal=   None    Shift=    0.000
 RMSDP=1.76D-03 MaxDP=1.85D-02 DE=-7.29D-02 OVMax= 9.38D-02

 Cycle   3  Pass 0  IDiag  1:
 E= -232.247193511022     Delta-E=       -0.081261032204 Rises=F Damp=F
 DIIS: error= 4.32D-03 at cycle   3 NSaved=   3.
 NSaved= 3 IEnMin= 3 EnMin= -232.247193511022     IErMin= 3 ErrMin= 4.32D-03
 ErrMax= 4.32D-03  0.00D+00 EMaxC= 1.00D-01 BMatC= 9.66D-04 BMatP= 6.56D-03
 IDIUse=3 WtCom= 9.57D-01 WtEn= 4.32D-02
 Coeff-Com: -0.360D-01 0.232D+00 0.804D+00
 Coeff-En:   0.000D+00 0.000D+00 0.100D+01
 Coeff:     -0.345D-01 0.222D+00 0.813D+00
 Gap=     0.250 Goal=   None    Shift=    0.000
 RMSDP=4.29D-04 MaxDP=3.61D-03 DE=-8.13D-02 OVMax= 7.65D-03

 Cycle   4  Pass 0  IDiag  1:
 E= -232.248063696538     Delta-E=       -0.000870185515 Rises=F Damp=F
 DIIS: error= 6.34D-04 at cycle   4 NSaved=   4.
 NSaved= 4 IEnMin= 4 EnMin= -232.248063696538     IErMin= 4 ErrMin= 6.34D-04
 ErrMax= 6.34D-04  0.00D+00 EMaxC= 1.00D-01 BMatC= 3.00D-05 BMatP= 9.66D-04
 IDIUse=3 WtCom= 9.94D-01 WtEn= 6.34D-03
 Coeff-Com: -0.856D-02 0.174D-01 0.185D+00 0.806D+00
 Coeff-En:   0.000D+00 0.000D+00 0.000D+00 0.100D+01
 Coeff:     -0.851D-02 0.173D-01 0.184D+00 0.807D+00
 Gap=     0.251 Goal=   None    Shift=    0.000
 RMSDP=5.61D-05 MaxDP=4.30D-04 DE=-8.70D-04 OVMax= 9.85D-04

 Cycle   5  Pass 0  IDiag  1:
 E= -232.248090913770     Delta-E=       -0.000027217232 Rises=F Damp=F
 DIIS: error= 2.22D-05 at cycle   5 NSaved=   5.
 NSaved= 5 IEnMin= 5 EnMin= -232.248090913770     IErMin= 5 ErrMin= 2.22D-05
 ErrMax= 2.22D-05  0.00D+00 EMaxC= 1.00D-01 BMatC= 2.85D-08 BMatP= 3.00D-05
 IDIUse=1 WtCom= 1.00D+00 WtEn= 0.00D+00
 Coeff-Com: -0.303D-03-0.339D-03 0.700D-02 0.535D-01 0.940D+00
 Coeff:     -0.303D-03-0.339D-03 0.700D-02 0.535D-01 0.940D+00
 Gap=     0.251 Goal=   None    Shift=    0.000
 RMSDP=3.12D-06 MaxDP=2.74D-05 DE=-2.72D-05 OVMax= 4.39D-05

 Initial convergence to 1.0D-05 achieved.  Increase integral accuracy.
 Cycle   6  Pass 1  IDiag  1:
 E= -232.248050093016     Delta-E=        0.000040820754 Rises=F Damp=F
 DIIS: error= 7.48D-05 at cycle   1 NSaved=   1.
 NSaved= 1 IEnMin= 1 EnMin= -232.248050093016     IErMin= 1 ErrMin= 7.48D-05
 ErrMax= 7.48D-05  0.00D+00 EMaxC= 1.00D-01 BMatC= 6.31D-08 BMatP= 6.31D-08
 IDIUse=1 WtCom= 1.00D+00 WtEn= 0.00D+00
 Coeff-Com:  0.100D+01
 Coeff:      0.100D+01
 Gap=     0.251 Goal=   None    Shift=    0.000
 RMSDP=3.12D-06 MaxDP=2.74D-05 DE= 4.08D-05 OVMax= 1.42D-04

 Cycle   7  Pass 1  IDiag  1:
 E= -232.248050183372     Delta-E=       -0.000000090356 Rises=F Damp=F
 DIIS: error= 3.23D-06 at cycle   2 NSaved=   2.
 NSaved= 2 IEnMin= 2 EnMin= -232.248050183372     IErMin= 2 ErrMin= 3.23D-06
 ErrMax= 3.23D-06  0.00D+00 EMaxC= 1.00D-01 BMatC= 6.33D-10 BMatP= 6.31D-08
 IDIUse=1 WtCom= 1.00D+00 WtEn= 0.00D+00
 Coeff-Com: -0.233D-01 0.102D+01
 Coeff:     -0.233D-01 0.102D+01
 Gap=     0.251 Goal=   None    Shift=    0.000
 RMSDP=6.14D-07 MaxDP=6.09D-06 DE=-9.04D-08 OVMax= 9.71D-06

 Cycle   8  Pass 1  IDiag  1:
 E= -232.248050183787     Delta-E=       -0.000000000415 Rises=F Damp=F
 DIIS: error= 1.92D-06 at cycle   3 NSaved=   3.
 NSaved= 3 IEnMin= 3 EnMin= -232.248050183787     IErMin= 3 ErrMin= 1.92D-06
 ErrMax= 1.92D-06  0.00D+00 EMaxC= 1.00D-01 BMatC= 2.96D-10 BMatP= 6.33D-10
 IDIUse=1 WtCom= 1.00D+00 WtEn= 0.00D+00
 Coeff-Com: -0.156D-01 0.414D+00 0.602D+00
 Coeff:     -0.156D-01 0.414D+00 0.602D+00
 Gap=     0.251 Goal=   None    Shift=    0.000
 RMSDP=1.98D-07 MaxDP=2.87D-06 DE=-4.15D-10 OVMax= 5.92D-06

 Cycle   9  Pass 1  IDiag  1:
 E= -232.248050184020     Delta-E=       -0.000000000233 Rises=F Damp=F
 DIIS: error= 7.62D-07 at cycle   4 NSaved=   4.
 NSaved= 4 IEnMin= 4 EnMin= -232.248050184020     IErMin= 4 ErrMin= 7.62D-07
 ErrMax= 7.62D-07  0.00D+00 EMaxC= 1.00D-01 BMatC= 4.00D-11 BMatP= 2.96D-10
 IDIUse=1 WtCom= 1.00D+00 WtEn= 0.00D+00
 Coeff-Com: -0.593D-02 0.128D+00 0.308D+00 0.570D+00
 Coeff:     -0.593D-02 0.128D+00 0.308D+00 0.570D+00
 Gap=     0.251 Goal=   None    Shift=    0.000
 RMSDP=6.67D-08 MaxDP=9.04D-07 DE=-2.33D-10 OVMax= 2.43D-06

 Cycle  10  Pass 1  IDiag  1:
 E= -232.248050184055     Delta-E=       -0.000000000035 Rises=F Damp=F
 DIIS: error= 1.20D-07 at cycle   5 NSaved=   5.
 NSaved= 5 IEnMin= 5 EnMin= -232.248050184055     IErMin= 5 ErrMin= 1.20D-07
 ErrMax= 1.20D-07  0.00D+00 EMaxC= 1.00D-01 BMatC= 1.06D-12 BMatP= 4.00D-11
 IDIUse=1 WtCom= 1.00D+00 WtEn= 0.00D+00
 Coeff-Com: -0.133D-02 0.228D-01 0.694D-01 0.202D+00 0.707D+00
 Coeff:     -0.133D-02 0.228D-01 0.694D-01 0.202D+00 0.707D+00
 Gap=     0.251 Goal=   None    Shift=    0.000
 RMSDP=1.18D-08 MaxDP=1.98D-07 DE=-3.48D-11 OVMax= 3.36D-07

 Cycle  11  Pass 1  IDiag  1:
 E= -232.248050184058     Delta-E=       -0.000000000003 Rises=F Damp=F
 DIIS: error= 4.23D-08 at cycle   6 NSaved=   6.
 NSaved= 6 IEnMin= 6 EnMin= -232.248050184058     IErMin= 6 ErrMin= 4.23D-08
 ErrMax= 4.23D-08  0.00D+00 EMaxC= 1.00D-01 BMatC= 1.25D-13 BMatP= 1.06D-12
 IDIUse=1 WtCom= 1.00D+00 WtEn= 0.00D+00
 Coeff-Com: -0.194D-03 0.170D-02 0.110D-01 0.584D-01 0.339D+00 0.590D+00
 Coeff:     -0.194D-03 0.170D-02 0.110D-01 0.584D-01 0.339D+00 0.590D+00
 Gap=     0.251 Goal=   None    Shift=    0.000
 RMSDP=4.22D-09 MaxDP=5.80D-08 DE=-3.13D-12 OVMax= 8.60D-08

 SCF Done:  E(RB3LYP) =  -232.248050184     A.U. after   11 cycles
            NFock= 11  Conv=0.42D-08     -V/T= 2.0104
 KE= 2.298482642809D+02 PE=-9.433421230898D+02 EE= 2.782104886857D+02
 Leave Link  502 at Sun Feb 21 11:08:33 2016, MaxMem=  268435456 cpu:       9.9
 (Enter /home/software/gaussian/gdvH23/gdv/l801.exe)
 DoSCS=F DFT=T ScalE2(SS,OS)=  1.000000  1.000000
 ExpMin= 1.61D-01 ExpMax= 3.05D+03 ExpMxC= 4.57D+02 IAcc=3 IRadAn=         5 AccDes= 0.00D+00
 HarFok:  IExCor=  205 AccDes= 0.00D+00 IRadAn=         5 IDoV=-2 UseB2=F ITyADJ=14
 ICtDFT= 12500011 ScaDFX=  1.000000  1.000000  1.000000  1.000000
 Largest valence mixing into a core orbital is  5.40D-05
 Largest core mixing into a valence orbital is  1.24D-05
 Range of M.O.s used for correlation:     7   102
 NBasis=   102 NAE=    21 NBE=    21 NFC=     6 NFV=     0
 NROrb=     96 NOA=    15 NOB=    15 NVA=    81 NVB=    81

 **** Warning!!: The largest alpha MO coefficient is  0.10935913D+02

 Leave Link  801 at Sun Feb 21 11:08:33 2016, MaxMem=  268435456 cpu:       1.1
 (Enter /home/software/gaussian/gdvH23/gdv/l914.exe)
 RHF ground state
 Energy threshold for converged states is -1.000000D+20 au    -2.721D+21 ev.
 Energy threshold for initial guesses  is -1.000000D+20 au    -2.721D+21 ev.
 MDV=   268435456 DFT=T DoStab=F Mixed=T DoRPA=T DoScal=F NonHer=T
 Keep R1, R2, and R3 ints in memory in canonical form, NReq=55864472.
 FoFCou: FMM=F IPFlag=           0 FMFlag=           0 FMFlg1=           0
         NFxFlg=           0 DoJE=F BraDBF=F KetDBF=F FulRan=T
         wScrn=  0.000000 ICntrl=     600 IOpCl=  0 I1Cent=           0 NGrid=           0
         NMat0=    1 NMatS0=   5253 NMatT0=    0 NMatD0=    1 NMtDS0=    0 NMtDT0=    0
 Symmetry not used in FoFCou.
 Making orbital integer symmetry assigments:
    48 initial guesses have been made.
 Convergence on wavefunction:    0.001000000000000
 Davidson Disk Diagonalization:  ConvIn= 1.00D-03 SkipCon=T Conv= 1.00D-03.
 Max sub-space:   200 roots to seek:    48 dimension of matrix:         2430
 Iteration     1 Dimension    48 NMult     0 NNew     48
 CISAX will form    48 AO SS matrices at one time.
 NMat=    48 NSing=    48 JSym2X= 0.
 New state      1 was old state      3
 New state      2 was old state      1
 New state      3 was old state      8
 New state      4 was old state      5
 New state      5 was old state      6
 New state      6 was old state      7
 New state      7 was old state      9
 New state      8 was old state     10
 New state      9 was old state      4
 New state     10 was old state      2
 Excitation Energies [eV] at current iteration:
 Root      1 :     5.637394921790597
 Root      2 :     7.119505603515488
 Root      3 :     7.904735937016010
 Root      4 :     7.980631489428201
 Root      5 :     7.980703309487589
 Root      6 :     8.009485274824616
 Root      7 :     8.009485367497140
 Root      8 :     8.015301178362089
 Root      9 :     8.691626016753105
 Root     10 :     8.691695857148719
 Root     11 :     9.312140252574482
 Root     12 :     9.312323747530330
 Root     13 :     9.391048274945444
 Root     14 :     9.469914464973447
 Root     15 :     9.469922386188884
 Root     16 :     9.550596065502384
 Root     17 :     9.932124839129264
 Root     18 :    10.028610702375210
 Root     19 :    10.028618009239230
 Root     20 :    10.111958029073870
 Root     21 :    10.491067038615900
 Root     22 :    10.491090861371130
 Root     23 :    10.593587902241160
 Root     24 :    10.653539455801960
 Root     25 :    10.653552172090790
 Root     26 :    10.680822280861630
 Root     27 :    10.769367672373180
 Root     28 :    10.770099636261880
 Root     29 :    10.882097516927710
 Root     30 :    10.882182511557330
 Root     31 :    11.132020897919010
 Root     32 :    11.581970161695930
 Root     33 :    11.582004596013600
 Root     34 :    11.896370072278860
 Root     35 :    11.896452520456740
 Root     36 :    12.063622569940330
 Root     37 :    12.266983398787290
 Root     38 :    12.266999240831760
 Root     39 :    12.361965457708560
 Root     40 :    12.417197962888830
 Root     41 :    12.417229584119960
 Root     42 :    12.596636579457770
 Root     43 :    12.596673597602430
 Root     44 :    12.991703458407910
 Root     45 :    12.991708007417110
 Root     46 :    13.049703071712070
 Root     47 :    13.145369820302210
 Root     48 :    13.489475945790530
 Iteration     2 Dimension    72 NMult    48 NNew     24
 CISAX will form    24 AO SS matrices at one time.
 NMat=    24 NSing=    24 JSym2X= 0.
 Root      1 not converged, maximum delta is    0.020359661200779
 Root      2 not converged, maximum delta is    0.057531882060844
 New state      3 was old state      9
 Root      3 not converged, maximum delta is    0.069154937274145
 New state      4 was old state     10
 Root      4 not converged, maximum delta is    0.069155613052087
 New state      5 was old state      3
 Root      5 not converged, maximum delta is    0.042687136060387
 New state      6 was old state      4
 Root      6 not converged, maximum delta is    0.009599516143070
 New state      7 was old state      5
 Root      7 not converged, maximum delta is    0.009599315562040
 New state      8 was old state      6
 Root      8 not converged, maximum delta is    0.027408122896084
 New state      9 was old state      7
 Root      9 not converged, maximum delta is    0.027408157359953
 New state     10 was old state      8
 Root     10 not converged, maximum delta is    0.028447424220095
 Root     11 not converged, maximum delta is    0.132618736428178
 Root     12 not converged, maximum delta is    0.132223898102476
 Excitation Energies [eV] at current iteration:
 Root      1 :     5.562784566666696   Change is   -0.074610355123901
 Root      2 :     6.332773580904659   Change is   -0.786732022610829
 Root      3 :     7.422792187263285   Change is   -1.268833829489820
 Root      4 :     7.422831687841424   Change is   -1.268864169307296
 Root      5 :     7.857502601885719   Change is   -0.047233335130291
 Root      6 :     7.957157591648167   Change is   -0.023473897780034
 Root      7 :     7.957228650462955   Change is   -0.023474659024634
 Root      8 :     7.961782118517731   Change is   -0.047703156306885
 Root      9 :     7.961783090366229   Change is   -0.047702277130911
 Root     10 :     7.975344409562426   Change is   -0.039956768799661
 Root     11 :     9.146947061762008   Change is   -0.165193190812474
 Root     12 :     9.147315503558541   Change is   -0.165008243971789
 Iteration     3 Dimension    96 NMult    72 NNew     24
 CISAX will form    24 AO SS matrices at one time.
 NMat=    24 NSing=    24 JSym2X= 0.
 Root      1 not converged, maximum delta is    0.002780188260872
 Root      2 not converged, maximum delta is    0.011413276433754
 Root      3 not converged, maximum delta is    0.013010351486757
 Root      4 not converged, maximum delta is    0.013009830162562
 Root      5 not converged, maximum delta is    0.001195127366620
 Root      6 not converged, maximum delta is    0.001091523428914
 Root      7 not converged, maximum delta is    0.001092668982428
 Root      8 not converged, maximum delta is    0.003736399135551
 Root      9 not converged, maximum delta is    0.003736369479373
 Root     10 not converged, maximum delta is    0.005375604871891
 Root     11 not converged, maximum delta is    0.008310041818099
 Root     12 not converged, maximum delta is    0.008385668784383
 Excitation Energies [eV] at current iteration:
 Root      1 :     5.561986060533348   Change is   -0.000798506133348
 Root      2 :     6.324042769692898   Change is   -0.008730811211760
 Root      3 :     7.394713945609012   Change is   -0.028078241654273
 Root      4 :     7.394753454264095   Change is   -0.028078233577329
 Root      5 :     7.857011463017003   Change is   -0.000491138868715
 Root      6 :     7.956757150587240   Change is   -0.000400441060927
 Root      7 :     7.956828215750570   Change is   -0.000400434712385
 Root      8 :     7.960896081648543   Change is   -0.000886036869188
 Root      9 :     7.960897101038895   Change is   -0.000885989327334
 Root     10 :     7.972024624945142   Change is   -0.003319784617285
 Root     11 :     9.140885056072777   Change is   -0.006062005689230
 Root     12 :     9.141097449688683   Change is   -0.006218053869858
 Iteration     4 Dimension   120 NMult    96 NNew     24
 CISAX will form    24 AO SS matrices at one time.
 NMat=    24 NSing=    24 JSym2X= 0.
 Root      1 has converged.
 Root      2 not converged, maximum delta is    0.001321480376631
 Root      3 not converged, maximum delta is    0.001911709019501
 Root      4 not converged, maximum delta is    0.001911702675048
 Root      5 has converged.
 Root      6 has converged.
 Root      7 has converged.
 Root      8 has converged.
 Root      9 has converged.
 Root     10 has converged.
 Root     11 has converged.
 Root     12 not converged, maximum delta is    0.001482168423000
 Excitation Energies [eV] at current iteration:
 Root      1 :     5.561955285566926   Change is   -0.000030774966423
 Root      2 :     6.323673023854840   Change is   -0.000369745838058
 Root      3 :     7.393989240209332   Change is   -0.000724705399680
 Root      4 :     7.394028763400645   Change is   -0.000724690863450
 Root      5 :     7.857003294922166   Change is   -0.000008168094837
 Root      6 :     7.956743470350873   Change is   -0.000013680236366
 Root      7 :     7.956814531295190   Change is   -0.000013684455380
 Root      8 :     7.960845322884314   Change is   -0.000050758764229
 Root      9 :     7.960846343522986   Change is   -0.000050757515909
 Root     10 :     7.971932787391192   Change is   -0.000091837553950
 Root     11 :     9.140448239128784   Change is   -0.000436816943995
 Root     12 :     9.140545146397985   Change is   -0.000552303290699
 Iteration     5 Dimension   128 NMult   120 NNew      8
 CISAX will form     8 AO SS matrices at one time.
 NMat=     8 NSing=     8 JSym2X= 0.
 Root      1 has converged.
 Root      2 has converged.
 Root      3 has converged.
 Root      4 has converged.
 Root      5 has converged.
 Root      6 has converged.
 Root      7 has converged.
 Root      8 has converged.
 Root      9 has converged.
 Root     10 has converged.
 Root     11 has converged.
 Root     12 has converged.
 Excitation Energies [eV] at current iteration:
 Root      1 :     5.561955285566349   Change is   -0.000000000000576
 Root      2 :     6.323661853055961   Change is   -0.000011170798880
 Root      3 :     7.393956810752457   Change is   -0.000032429456874
 Root      4 :     7.393996334916690   Change is   -0.000032428483955
 Root      5 :     7.857003294922166   Change is    0.000000000000000
 Root      6 :     7.956743470350927   Change is    0.000000000000053
 Root      7 :     7.956814531295199   Change is    0.000000000000009
 Root      8 :     7.960845322884333   Change is    0.000000000000020
 Root      9 :     7.960846343522975   Change is   -0.000000000000011
 Root     10 :     7.971932787391222   Change is    0.000000000000030
 Root     11 :     9.140448239128828   Change is    0.000000000000045
 Root     12 :     9.140472901096064   Change is   -0.000072245301919
 Convergence achieved on expansion vectors.
 ***********************************************************************
 Excited states from <AA,BB:AA,BB> singles matrix:
 ***********************************************************************
 
 1PDM for each excited state written to RWF  633
 Ground to excited state transition densities written to RWF  633
 Ground to excited state transition electric dipole moments (Au):
       state          X           Y           Z        Dip. S.      Osc.
         1         0.0000      0.0000      0.0000      0.0000      0.0000
         2         0.0000     -0.0001      0.0000      0.0000      0.0000
         3         0.0000     -1.7600      0.0000      3.0977      0.5611
         4        -1.7600      0.0000      0.0000      3.0977      0.5612
         5         0.0000      0.0000      0.0000      0.0000      0.0000
         6         0.0000      0.0000      0.0000      0.0000      0.0000
         7         0.0000      0.0000      0.0000      0.0000      0.0000
         8         0.0000      0.0000      0.0006      0.0000      0.0000
         9         0.0000      0.0000      0.0000      0.0000      0.0000
        10         0.0000      0.0000      0.1770      0.0313      0.0061
        11         0.0000      0.0000      0.0000      0.0000      0.0000
        12         0.0000      0.0000      0.0000      0.0000      0.0000
 Ground to excited state transition velocity dipole moments (Au):
       state          X           Y           Z        Dip. S.      Osc.
         1         0.0000      0.0000      0.0000      0.0000      0.0000
         2         0.0000      0.0000      0.0000      0.0000      0.0000
         3         0.0000      0.4817      0.0000      0.2320      0.5692
         4         0.4817      0.0000      0.0000      0.2320      0.5692
         5         0.0000      0.0000      0.0000      0.0000      0.0000
         6         0.0000      0.0000      0.0000      0.0000      0.0000
         7         0.0000      0.0000      0.0000      0.0000      0.0000
         8         0.0000      0.0000      0.0000      0.0000      0.0000
         9         0.0000      0.0000      0.0000      0.0000      0.0000
        10         0.0000      0.0000     -0.0109      0.0001      0.0003
        11         0.0000      0.0000      0.0000      0.0000      0.0000
        12         0.0000      0.0000      0.0000      0.0000      0.0000
 Ground to excited state transition magnetic dipole moments (Au):
       state          X           Y           Z
         1         0.0000      0.0000      0.0000
         2        -0.0001      0.0000      0.0000
         3        -1.8204      0.0000      0.0000
         4         0.0000      1.8204      0.0000
         5         0.0000      0.0000      0.0000
         6         0.0000     -0.3444      0.0000
         7         0.3444      0.0000      0.0000
         8         0.0000      0.0000      0.0000
         9         0.0000      0.0000      0.0000
        10         0.0000      0.0000      0.0000
        11         0.0000      0.0000      0.0000
        12         0.0000      0.0000      0.0000
 Ground to excited state transition velocity quadrupole moments (Au):
       state          XX          YY          ZZ          XY          XZ          YZ
         1         0.0000      0.0000      0.0000      0.0000      0.0000      0.0000
         2         0.0000      0.0000      0.0000      0.0000      0.0000      0.0001
         3         0.0000      0.0000      0.0000      0.0000      0.0000      1.8204
         4         0.0000      0.0000      0.0000      0.0000      1.8204      0.0000
         5         0.0000      0.0000      0.0000      0.0000      0.0000      0.0000
         6         0.0000      0.0000      0.0000      0.0000      0.1245      0.0000
         7         0.0000      0.0000      0.0000      0.0000      0.0000      0.1245
         8         0.0000      0.0000     -0.0003      0.0000      0.0000      0.0000
         9         0.0000      0.0000      0.0000      0.0000      0.0000      0.0000
        10         0.0000      0.0000     -0.0826      0.0000      0.0000      0.0000
        11         0.0000      0.0000      0.0000      0.5201      0.0000      0.0000
        12        -0.5192      0.5188      0.0001      0.0000      0.0000      0.0000
 <0|del|b> * <b|rxdel|0> + <0|del|b> * <b|delr+rdel|0>
 Rotatory Strengths (R) in cgs (10**-40 erg-esu-cm/Gauss)
       state          XX          YY          ZZ    R(velocity)    E-M Angle
         1         0.0000      0.0000      0.0000      0.0000       90.00
         2         0.0000      0.0000      0.0000      0.0000       90.00
         3         0.0000      0.0000      0.0000      0.0000       90.00
         4         0.0000      0.0000      0.0000      0.0000       90.00
         5         0.0000      0.0000      0.0000      0.0000       90.00
         6         0.0000      0.0000      0.0000      0.0000       90.00
         7         0.0000      0.0000      0.0000      0.0000       90.00
         8         0.0000      0.0000      0.0000      0.0000       90.00
         9         0.0000      0.0000      0.0000      0.0000       90.00
        10         0.0000      0.0000      0.0000      0.0000       90.00
        11         0.0000      0.0000      0.0000      0.0000       90.00
        12         0.0000      0.0000      0.0000      0.0000       90.00
 1/2[<0|r|b>*<b|rxdel|0> + (<0|rxdel|b>*<b|r|0>)*]
 Rotatory Strengths (R) in cgs (10**-40 erg-esu-cm/Gauss)
       state          XX          YY          ZZ     R(length)
         1         0.0000      0.0000      0.0000      0.0000
         2         0.0000      0.0000      0.0000      0.0000
         3         0.0000      0.0000      0.0000      0.0000
         4         0.0000      0.0000      0.0000      0.0000
         5         0.0000      0.0000      0.0000      0.0000
         6         0.0000      0.0000      0.0000      0.0000
         7         0.0000      0.0000      0.0000      0.0000
         8         0.0000      0.0000      0.0000      0.0000
         9         0.0000      0.0000      0.0000      0.0000
        10         0.0000      0.0000      0.0000      0.0000
        11         0.0000      0.0000      0.0000      0.0000
        12         0.0000      0.0000      0.0000      0.0000
  1/2[<0|del|b>*<b|r|0> + (<0|r|b>*<b|del|0>)*] (Au)
       state          X           Y           Z        Dip. S.   Osc.(frdel)
         1         0.0000      0.0000      0.0000      0.0000      0.0000
         2         0.0000      0.0000      0.0000      0.0000      0.0000
         3         0.0000     -0.8477      0.0000      0.8477      0.5652
         4        -0.8477      0.0000      0.0000      0.8477      0.5651
         5         0.0000      0.0000      0.0000      0.0000      0.0000
         6         0.0000      0.0000      0.0000      0.0000      0.0000
         7         0.0000      0.0000      0.0000      0.0000      0.0000
         8         0.0000      0.0000      0.0000      0.0000      0.0000
         9         0.0000      0.0000      0.0000      0.0000      0.0000
        10         0.0000      0.0000     -0.0019      0.0019      0.0013
        11         0.0000      0.0000      0.0000      0.0000      0.0000
        12         0.0000      0.0000      0.0000      0.0000      0.0000

 Excitation energies and oscillator strengths:
 
 Excited state symmetry could not be determined.
 Excited State   1:      Singlet-?Sym    5.5620 eV  222.91 nm  f=0.0000  <S**2>=0.000
       7 -> 35         0.00180
       7 -> 73         0.00069
       8 -> 28         0.00266
       8 -> 31         0.00233
       8 -> 43         0.00283
       8 -> 50         0.00022
       8 -> 59         0.00047
       8 -> 66        -0.00058
       8 -> 78         0.00028
       8 -> 87        -0.00019
       8 -> 91        -0.00070
       8 ->101         0.00015
       9 -> 29         0.00266
       9 -> 32         0.00233
       9 -> 44         0.00283
       9 -> 51         0.00022
       9 -> 60         0.00047
       9 -> 67        -0.00058
       9 -> 79        -0.00028
       9 -> 88        -0.00019
       9 -> 90        -0.00070
       9 ->100         0.00015
      10 -> 25         0.00287
      10 -> 33        -0.00828
      10 -> 46         0.00321
      10 -> 53        -0.00080
      10 -> 56        -0.00020
      10 -> 62         0.00080
      10 -> 77         0.00069
      10 -> 83        -0.00121
      10 -> 92         0.00032
      10 -> 99         0.00019
      11 -> 26         0.00287
      11 -> 34         0.00828
      11 -> 45         0.00321
      11 -> 54        -0.00080
      11 -> 57        -0.00020
      11 -> 61        -0.00080
      11 -> 76         0.00069
      11 -> 82        -0.00121
      11 -> 93        -0.00032
      11 -> 98         0.00019
      12 -> 35        -0.00525
      12 -> 73        -0.00240
      13 -> 39         0.00668
      13 -> 58        -0.00098
      13 -> 95        -0.00073
      14 -> 24         0.01296
      14 -> 38        -0.00808
      14 -> 40         0.00058
      14 -> 55         0.00158
      14 -> 72         0.00203
      14 -> 74         0.00301
      14 -> 97         0.00031
      15 -> 28         0.00333
      15 -> 31         0.00735
      15 -> 43        -0.00230
      15 -> 50         0.00018
      15 -> 59        -0.00042
      15 -> 66         0.00088
      15 -> 78        -0.00194
      15 -> 87        -0.00049
      15 -> 91         0.00077
      15 ->101        -0.00003
      16 -> 29         0.00333
      16 -> 32         0.00735
      16 -> 44        -0.00230
      16 -> 51         0.00018
      16 -> 60        -0.00042
      16 -> 67         0.00088
      16 -> 79         0.00194
      16 -> 88        -0.00049
      16 -> 90         0.00077
      16 ->100        -0.00003
      17 -> 64        -0.00060
      18 -> 25         0.00444
      18 -> 33         0.00164
      18 -> 46         0.00231
      18 -> 53        -0.00215
      18 -> 56         0.00073
      18 -> 62         0.00293
      18 -> 77         0.00104
      18 -> 83        -0.00201
      18 -> 92        -0.00096
      18 -> 99         0.00018
      19 -> 26         0.00444
      19 -> 34        -0.00164
      19 -> 45         0.00231
      19 -> 54        -0.00215
      19 -> 57         0.00073
      19 -> 61        -0.00293
      19 -> 76         0.00104
      19 -> 82        -0.00201
      19 -> 93         0.00096
      19 -> 98         0.00018
      20 -> 22         0.49979
      20 -> 47        -0.00412
      20 -> 69        -0.00184
      20 -> 81        -0.00146
      21 -> 23         0.49979
      21 -> 48        -0.00412
      21 -> 68        -0.00184
      21 -> 80        -0.00146
       7 <- 35         0.00113
       7 <- 73         0.00066
       8 <- 28         0.00155
       8 <- 31         0.00141
       8 <- 43         0.00174
       8 <- 50         0.00021
       8 <- 59         0.00018
       8 <- 66        -0.00033
       8 <- 78         0.00026
       8 <- 87        -0.00014
       8 <- 91        -0.00061
       8 <-101         0.00013
       9 <- 29         0.00155
       9 <- 32         0.00141
       9 <- 44         0.00174
       9 <- 51         0.00021
       9 <- 60         0.00018
       9 <- 67        -0.00033
       9 <- 79        -0.00026
       9 <- 88        -0.00014
       9 <- 90        -0.00061
       9 <-100         0.00013
      10 <- 25         0.00144
      10 <- 33        -0.00523
      10 <- 46         0.00258
      10 <- 53        -0.00050
      10 <- 62         0.00080
      10 <- 77         0.00053
      10 <- 83        -0.00106
      10 <- 92         0.00029
      10 <- 99         0.00017
      11 <- 26         0.00144
      11 <- 34         0.00523
      11 <- 45         0.00258
      11 <- 54        -0.00050
      11 <- 61        -0.00080
      11 <- 76         0.00053
      11 <- 82        -0.00106
      11 <- 93        -0.00029
      11 <- 98         0.00017
      12 <- 35        -0.00332
      12 <- 73        -0.00198
      13 <- 39         0.00431
      13 <- 58        -0.00072
      13 <- 95        -0.00064
      14 <- 24         0.00503
      14 <- 38        -0.00524
      14 <- 40         0.00059
      14 <- 55         0.00109
      14 <- 72         0.00180
      14 <- 74         0.00247
      14 <- 97         0.00027
      15 <- 28         0.00155
      15 <- 31         0.00392
      15 <- 43        -0.00133
      15 <- 50         0.00010
      15 <- 59        -0.00024
      15 <- 66         0.00061
      15 <- 78        -0.00162
      15 <- 87        -0.00043
      15 <- 91         0.00066
      15 <-101        -0.00003
      16 <- 29         0.00155
      16 <- 32         0.00392
      16 <- 44        -0.00133
      16 <- 51         0.00010
      16 <- 60        -0.00024
      16 <- 67         0.00061
      16 <- 79         0.00162
      16 <- 88        -0.00043
      16 <- 90         0.00066
      16 <-100        -0.00003
      17 <- 64        -0.00234
      18 <- 25         0.00155
      18 <- 33         0.00070
      18 <- 46         0.00155
      18 <- 53        -0.00142
      18 <- 56         0.00055
      18 <- 62         0.00224
      18 <- 77         0.00084
      18 <- 83        -0.00170
      18 <- 92        -0.00082
      18 <- 99         0.00016
      19 <- 26         0.00155
      19 <- 34        -0.00070
      19 <- 45         0.00155
      19 <- 54        -0.00142
      19 <- 57         0.00055
      19 <- 61        -0.00224
      19 <- 76         0.00084
      19 <- 82        -0.00170
      19 <- 93         0.00082
      19 <- 98         0.00016
      20 <- 22         0.00834
      20 <- 47        -0.00131
      20 <- 69        -0.00207
      20 <- 81        -0.00102
      21 <- 23         0.00833
      21 <- 48        -0.00131
      21 <- 68        -0.00207
      21 <- 80        -0.00102
 This state for optimization and/or second-order correction.
 Total Energy, E(TD-HF/TD-KS) =  -232.043652088    
 Copying the excited state density for this state as the 1-particle RhoCI density.
 
 Excited state symmetry could not be determined.
 Excited State   2:      Singlet-?Sym    6.3237 eV  196.06 nm  f=0.0000  <S**2>=0.000
       7 -> 30         0.00967
       7 -> 37        -0.01039
       7 -> 52         0.00252
       7 -> 63        -0.00357
       7 -> 75         0.00210
       7 -> 94         0.00013
       7 -> 96         0.00047
       7 ->102         0.00022
       8 -> 29         0.01522
       8 -> 32         0.00847
       8 -> 44         0.00685
       8 -> 51        -0.00038
       8 -> 60        -0.00518
       8 -> 67         0.00181
       8 -> 79        -0.00142
       8 -> 88         0.00056
       8 -> 90         0.00075
       8 ->100         0.00038
       9 -> 28        -0.01522
       9 -> 31        -0.00847
       9 -> 43        -0.00686
       9 -> 50         0.00038
       9 -> 59         0.00518
       9 -> 66        -0.00181
       9 -> 78        -0.00142
       9 -> 87        -0.00056
       9 -> 91        -0.00075
       9 ->101        -0.00038
      10 -> 26        -0.00809
      10 -> 34         0.02113
      10 -> 45         0.00423
      10 -> 54         0.00187
      10 -> 57        -0.00860
      10 -> 61         0.00153
      10 -> 76        -0.00039
      10 -> 82        -0.00017
      10 -> 93         0.00078
      10 -> 98         0.00044
      11 -> 25         0.00809
      11 -> 33         0.02113
      11 -> 46        -0.00422
      11 -> 53        -0.00187
      11 -> 56         0.00860
      11 -> 62         0.00153
      11 -> 77         0.00039
      11 -> 83         0.00017
      11 -> 92         0.00078
      11 -> 99        -0.00044
      12 -> 30         0.00900
      12 -> 37         0.01026
      12 -> 52        -0.00836
      12 -> 63         0.00112
      12 -> 75        -0.00027
      12 -> 94        -0.00002
      12 -> 96        -0.00043
      12 ->102         0.00015
      13 -> 24         0.01102
      13 -> 38         0.00752
      13 -> 40         0.01014
      13 -> 55         0.00355
      13 -> 72        -0.00083
      13 -> 74        -0.00281
      13 -> 97        -0.00053
      14 -> 39         0.02562
      14 -> 58        -0.01398
      14 -> 95         0.00094
      15 -> 29         0.00503
      15 -> 32        -0.01602
      15 -> 44        -0.01365
      15 -> 51        -0.00451
      15 -> 60         0.00140
      15 -> 67        -0.00131
      15 -> 79         0.00247
      15 -> 88        -0.00042
      15 -> 90        -0.00149
      15 ->100         0.00003
      16 -> 28        -0.00503
      16 -> 31         0.01603
      16 -> 43         0.01365
      16 -> 50         0.00451
      16 -> 59        -0.00140
      16 -> 66         0.00131
      16 -> 78         0.00247
      16 -> 87         0.00042
      16 -> 91         0.00149
      16 ->101        -0.00003
      17 -> 27         0.03217
      17 -> 49         0.00663
      17 -> 86         0.00014
      18 -> 26         0.01670
      18 -> 34         0.01478
      18 -> 45         0.01532
      18 -> 54        -0.00134
      18 -> 57        -0.00721
      18 -> 61         0.00593
      18 -> 76        -0.00336
      18 -> 82         0.00165
      18 -> 93         0.00131
      18 -> 98        -0.00014
      19 -> 25        -0.01670
      19 -> 33         0.01477
      19 -> 46        -0.01532
      19 -> 53         0.00134
      19 -> 56         0.00721
      19 -> 62         0.00593
      19 -> 77         0.00336
      19 -> 83        -0.00165
      19 -> 92         0.00131
      19 -> 99         0.00014
      20 -> 23        -0.49829
      20 -> 48        -0.00865
      20 -> 68        -0.00474
      20 -> 80         0.00038
      21 -> 22         0.49834
      21 -> 47         0.00865
      21 -> 69         0.00474
      21 -> 81        -0.00038
       7 <- 30         0.00622
       7 <- 37        -0.00783
       7 <- 52         0.00200
       7 <- 63        -0.00257
       7 <- 75         0.00155
       7 <- 94        -0.00002
       7 <- 96         0.00038
       7 <-102         0.00020
       8 <- 29         0.00901
       8 <- 32         0.00552
       8 <- 44         0.00511
       8 <- 51        -0.00035
       8 <- 60        -0.00362
       8 <- 67         0.00141
       8 <- 79        -0.00128
       8 <- 88         0.00034
       8 <- 90         0.00058
       8 <-100         0.00034
       9 <- 28        -0.00901
       9 <- 31        -0.00552
       9 <- 43        -0.00511
       9 <- 50         0.00035
       9 <- 59         0.00362
       9 <- 66        -0.00141
       9 <- 78        -0.00128
       9 <- 87        -0.00034
       9 <- 91        -0.00058
       9 <-101        -0.00034
      10 <- 26        -0.00381
      10 <- 34         0.01201
      10 <- 45         0.00235
      10 <- 54         0.00127
      10 <- 57        -0.00632
      10 <- 61         0.00142
      10 <- 76        -0.00027
      10 <- 82        -0.00017
      10 <- 93         0.00069
      10 <- 98         0.00040
      11 <- 25         0.00381
      11 <- 33         0.01201
      11 <- 46        -0.00234
      11 <- 53        -0.00127
      11 <- 56         0.00632
      11 <- 62         0.00142
      11 <- 77         0.00027
      11 <- 83         0.00017
      11 <- 92         0.00069
      11 <- 99        -0.00040
      12 <- 30         0.00400
      12 <- 37         0.00645
      12 <- 52        -0.00568
      12 <- 63         0.00090
      12 <- 75        -0.00019
      12 <- 96        -0.00036
      12 <-102         0.00014
      13 <- 24         0.00330
      13 <- 38         0.00435
      13 <- 40         0.00664
      13 <- 55         0.00245
      13 <- 72        -0.00051
      13 <- 74        -0.00226
      13 <- 97        -0.00050
      14 <- 39         0.01540
      14 <- 58        -0.00966
      14 <- 95         0.00081
      15 <- 29         0.00165
      15 <- 32        -0.00777
      15 <- 44        -0.00849
      15 <- 51        -0.00286
      15 <- 60         0.00093
      15 <- 67        -0.00092
      15 <- 79         0.00205
      15 <- 88        -0.00028
      15 <- 90        -0.00123
      15 <-100         0.00004
      16 <- 28        -0.00165
      16 <- 31         0.00777
      16 <- 43         0.00849
      16 <- 50         0.00286
      16 <- 59        -0.00093
      16 <- 66         0.00092
      16 <- 78         0.00205
      16 <- 87         0.00028
      16 <- 91         0.00123
      16 <-101        -0.00004
      17 <- 27         0.02296
      17 <- 49         0.00543
      17 <- 86         0.00003
      18 <- 26         0.00469
      18 <- 34         0.00655
      18 <- 45         0.00912
      18 <- 54        -0.00078
      18 <- 57        -0.00483
      18 <- 61         0.00424
      18 <- 76        -0.00271
      18 <- 82         0.00127
      18 <- 93         0.00109
      18 <- 98        -0.00013
      19 <- 25        -0.00469
      19 <- 33         0.00655
      19 <- 46        -0.00911
      19 <- 53         0.00078
      19 <- 56         0.00483
      19 <- 62         0.00424
      19 <- 77         0.00271
      19 <- 83        -0.00127
      19 <- 92         0.00109
      19 <- 99         0.00013
      20 <- 23         0.02692
      20 <- 48        -0.00735
      20 <- 68        -0.00430
      20 <- 80        -0.00017
      21 <- 22        -0.02693
      21 <- 47         0.00735
      21 <- 69         0.00430
      21 <- 81         0.00017
 
 Excited state symmetry could not be determined.
 Excited State   3:      Singlet-?Sym    7.3940 eV  167.68 nm  f=0.5611  <S**2>=0.000
       7 -> 26         0.00038
       7 -> 34        -0.00689
       7 -> 45        -0.00137
       7 -> 54        -0.00082
       7 -> 57         0.00420
       7 -> 61        -0.00111
       7 -> 76         0.00119
       7 -> 82         0.00016
       7 -> 93        -0.00044
       7 -> 98        -0.00004
       8 -> 24         0.01737
       8 -> 29        -0.00873
       8 -> 32        -0.00793
       8 -> 38        -0.00858
       8 -> 40         0.00264
       8 -> 44        -0.00395
       8 -> 51        -0.00010
       8 -> 55         0.00119
       8 -> 60         0.00285
       8 -> 67        -0.00032
       8 -> 72        -0.00156
       8 -> 74         0.00068
       8 -> 79         0.00043
       8 -> 88        -0.00011
       8 -> 90        -0.00014
       8 -> 97        -0.00011
       8 ->100        -0.00003
       9 -> 28        -0.00873
       9 -> 31        -0.00793
       9 -> 39        -0.00487
       9 -> 43        -0.00395
       9 -> 50        -0.00010
       9 -> 58         0.00429
       9 -> 59         0.00285
       9 -> 66        -0.00032
       9 -> 78        -0.00043
       9 -> 87        -0.00011
       9 -> 91        -0.00014
       9 -> 95        -0.00074
       9 ->101        -0.00003
      10 -> 26         0.01317
      10 -> 30        -0.02280
      10 -> 34         0.00674
      10 -> 37         0.01274
      10 -> 45         0.00621
      10 -> 52        -0.00112
      10 -> 54        -0.00324
      10 -> 57        -0.00197
      10 -> 61        -0.00084
      10 -> 63         0.00292
      10 -> 75        -0.00115
      10 -> 76         0.00046
      10 -> 82         0.00036
      10 -> 93         0.00081
      10 -> 94         0.00010
      10 -> 96         0.00029
      10 -> 98        -0.00009
      10 ->102        -0.00009
      11 -> 25         0.01317
      11 -> 33        -0.00675
      11 -> 35        -0.00017
      11 -> 46         0.00621
      11 -> 53        -0.00324
      11 -> 56        -0.00197
      11 -> 62         0.00084
      11 -> 73        -0.00021
      11 -> 77         0.00046
      11 -> 83         0.00036
      11 -> 92        -0.00081
      11 -> 99        -0.00009
      12 -> 26         0.03356
      12 -> 34         0.01268
      12 -> 45         0.00254
      12 -> 54        -0.00293
      12 -> 57        -0.00059
      12 -> 61         0.00169
      12 -> 76        -0.00074
      12 -> 82         0.00040
      12 -> 93        -0.00057
      12 -> 98         0.00006
      13 -> 29         0.04033
      13 -> 32         0.01284
      13 -> 44        -0.00187
      13 -> 51        -0.00264
      13 -> 60        -0.00250
      13 -> 67         0.00128
      13 -> 79         0.00089
      13 -> 88        -0.00060
      13 -> 90        -0.00053
      13 ->100         0.00015
      14 -> 28         0.03726
      14 -> 31         0.02842
      14 -> 43         0.02232
      14 -> 50         0.00395
      14 -> 59        -0.00525
      14 -> 66         0.00056
      14 -> 78         0.00094
      14 -> 87         0.00070
      14 -> 91        -0.00080
      14 ->101         0.00002
      15 -> 24        -0.00822
      15 -> 29         0.00166
      15 -> 32         0.03945
      15 -> 38         0.02096
      15 -> 40         0.00295
      15 -> 44         0.00710
      15 -> 51         0.00528
      15 -> 55         0.00350
      15 -> 60        -0.00205
      15 -> 67         0.00053
      15 -> 72         0.00191
      15 -> 74        -0.00222
      15 -> 79         0.00075
      15 -> 88        -0.00019
      15 -> 90         0.00026
      15 -> 97         0.00016
      15 ->100         0.00003
      16 -> 28         0.00166
      16 -> 31         0.03944
      16 -> 39         0.01390
      16 -> 43         0.00709
      16 -> 50         0.00528
      16 -> 58        -0.00436
      16 -> 59        -0.00205
      16 -> 66         0.00053
      16 -> 78        -0.00075
      16 -> 87        -0.00019
      16 -> 91         0.00026
      16 -> 95        -0.00019
      16 ->101         0.00003
      17 -> 41        -0.00894
      17 -> 71         0.00258
      17 -> 85        -0.00123
      18 -> 26         0.00370
      18 -> 30        -0.00542
      18 -> 34         0.05428
      18 -> 37         0.02483
      18 -> 45         0.00930
      18 -> 52        -0.01013
      18 -> 54        -0.00169
      18 -> 57        -0.00684
      18 -> 61        -0.00147
      18 -> 63         0.00319
      18 -> 75        -0.00087
      18 -> 76         0.00195
      18 -> 82        -0.00043
      18 -> 93         0.00013
      18 -> 94        -0.00003
      18 -> 96         0.00009
      18 -> 98        -0.00003
      18 ->102        -0.00003
      19 -> 25         0.00371
      19 -> 33        -0.05428
      19 -> 35         0.02169
      19 -> 46         0.00930
      19 -> 53        -0.00169
      19 -> 56        -0.00684
      19 -> 62         0.00147
      19 -> 73         0.00241
      19 -> 77         0.00195
      19 -> 83        -0.00043
      19 -> 92        -0.00013
      19 -> 99        -0.00003
      20 -> 23         0.49795
      20 -> 36        -0.02230
      20 -> 48         0.00481
      20 -> 65        -0.00292
      20 -> 68        -0.00369
      20 -> 80        -0.00043
      21 -> 22         0.49790
      21 -> 47         0.00482
      21 -> 69        -0.00369
      21 -> 81        -0.00043
      21 -> 89         0.00093
       7 <- 26         0.00021
       7 <- 34        -0.00435
       7 <- 45        -0.00138
       7 <- 54        -0.00064
       7 <- 57         0.00278
       7 <- 61        -0.00076
       7 <- 76         0.00105
       7 <- 82         0.00029
       7 <- 93        -0.00035
       7 <- 98        -0.00002
       8 <- 24         0.00784
       8 <- 29        -0.00492
       8 <- 32        -0.00497
       8 <- 38        -0.00554
       8 <- 40         0.00205
       8 <- 44        -0.00338
       8 <- 51         0.00012
       8 <- 55         0.00076
       8 <- 60         0.00152
       8 <- 67         0.00009
       8 <- 72        -0.00101
       8 <- 74         0.00049
       8 <- 79         0.00038
       8 <- 88         0.00012
       8 <- 90        -0.00007
       8 <- 97        -0.00012
       8 <-100        -0.00001
       9 <- 28        -0.00492
       9 <- 31        -0.00497
       9 <- 39        -0.00315
       9 <- 43        -0.00338
       9 <- 50         0.00012
       9 <- 58         0.00298
       9 <- 59         0.00152
       9 <- 66         0.00009
       9 <- 78        -0.00038
       9 <- 87         0.00012
       9 <- 91        -0.00007
       9 <- 95        -0.00062
       9 <-101        -0.00001
      10 <- 26         0.00532
      10 <- 30        -0.01052
      10 <- 34         0.00368
      10 <- 37         0.00821
      10 <- 45         0.00464
      10 <- 52        -0.00094
      10 <- 54        -0.00193
      10 <- 57        -0.00094
      10 <- 61        -0.00087
      10 <- 63         0.00180
      10 <- 75        -0.00067
      10 <- 76         0.00019
      10 <- 82         0.00013
      10 <- 93         0.00061
      10 <- 94         0.00027
      10 <- 96         0.00029
      10 <- 98        -0.00011
      10 <-102        -0.00007
      11 <- 25         0.00532
      11 <- 33        -0.00368
      11 <- 35        -0.00029
      11 <- 46         0.00464
      11 <- 53        -0.00193
      11 <- 56        -0.00094
      11 <- 62         0.00087
      11 <- 73         0.00006
      11 <- 77         0.00019
      11 <- 83         0.00013
      11 <- 92        -0.00061
      11 <- 99        -0.00011
      12 <- 26         0.01267
      12 <- 34         0.00587
      12 <- 45         0.00152
      12 <- 54        -0.00183
      12 <- 57        -0.00039
      12 <- 61         0.00098
      12 <- 76        -0.00055
      12 <- 82         0.00025
      12 <- 93        -0.00046
      12 <- 98         0.00005
      13 <- 29         0.01436
      13 <- 32         0.00537
      13 <- 44        -0.00155
      13 <- 51        -0.00146
      13 <- 60        -0.00184
      13 <- 67         0.00123
      13 <- 79         0.00056
      13 <- 88        -0.00044
      13 <- 90        -0.00044
      13 <-100         0.00013
      14 <- 28         0.01363
      14 <- 31         0.01237
      14 <- 43         0.01292
      14 <- 50         0.00228
      14 <- 59        -0.00316
      14 <- 66         0.00035
      14 <- 78         0.00090
      14 <- 87         0.00032
      14 <- 91        -0.00073
      14 <-101        -0.00002
      15 <- 24        -0.00249
      15 <- 29         0.00085
      15 <- 32         0.01656
      15 <- 38         0.01112
      15 <- 40         0.00158
      15 <- 44         0.00418
      15 <- 51         0.00309
      15 <- 55         0.00228
      15 <- 60        -0.00126
      15 <- 67         0.00023
      15 <- 72         0.00147
      15 <- 74        -0.00158
      15 <- 79         0.00052
      15 <- 88        -0.00024
      15 <- 90         0.00016
      15 <- 97         0.00014
      15 <-100         0.00001
      16 <- 28         0.00085
      16 <- 31         0.01656
      16 <- 39         0.00713
      16 <- 43         0.00418
      16 <- 50         0.00309
      16 <- 58        -0.00274
      16 <- 59        -0.00126
      16 <- 66         0.00023
      16 <- 78        -0.00052
      16 <- 87        -0.00024
      16 <- 91         0.00016
      16 <- 95        -0.00014
      16 <-101         0.00001
      17 <- 41        -0.00556
      17 <- 71         0.00121
      17 <- 85        -0.00061
      18 <- 26         0.00099
      18 <- 30        -0.00229
      18 <- 34         0.02054
      18 <- 37         0.01305
      18 <- 45         0.00499
      18 <- 52        -0.00607
      18 <- 54        -0.00095
      18 <- 57        -0.00408
      18 <- 61        -0.00103
      18 <- 63         0.00201
      18 <- 75        -0.00048
      18 <- 76         0.00140
      18 <- 82        -0.00039
      18 <- 93         0.00012
      18 <- 94         0.00012
      18 <- 96         0.00013
      18 <- 98        -0.00003
      18 <-102        -0.00002
      19 <- 25         0.00099
      19 <- 33        -0.02054
      19 <- 35         0.01016
      19 <- 46         0.00499
      19 <- 53        -0.00095
      19 <- 56        -0.00408
      19 <- 62         0.00103
      19 <- 73         0.00177
      19 <- 77         0.00140
      19 <- 83        -0.00039
      19 <- 92        -0.00012
      19 <- 99        -0.00003
      20 <- 23        -0.07778
      20 <- 36        -0.00867
      20 <- 48         0.00531
      20 <- 65        -0.00225
      20 <- 68        -0.00352
      20 <- 80         0.00003
      21 <- 22        -0.07778
      21 <- 47         0.00531
      21 <- 69        -0.00352
      21 <- 81         0.00003
      21 <- 89         0.00042
 
 Excited state symmetry could not be determined.
 Excited State   4:      Singlet-?Sym    7.3940 eV  167.68 nm  f=0.5612  <S**2>=0.000
       7 -> 25         0.00038
       7 -> 33         0.00689
       7 -> 46        -0.00137
       7 -> 53        -0.00082
       7 -> 56         0.00420
       7 -> 62         0.00111
       7 -> 77         0.00119
       7 -> 83         0.00016
       7 -> 92         0.00044
       7 -> 99        -0.00004
       8 -> 28        -0.00873
       8 -> 31        -0.00793
       8 -> 39         0.00487
       8 -> 43        -0.00395
       8 -> 50        -0.00010
       8 -> 58        -0.00429
       8 -> 59         0.00285
       8 -> 66        -0.00032
       8 -> 78        -0.00043
       8 -> 87        -0.00011
       8 -> 91        -0.00014
       8 -> 95         0.00074
       8 ->101        -0.00003
       9 -> 24         0.01737
       9 -> 29         0.00873
       9 -> 32         0.00793
       9 -> 38        -0.00858
       9 -> 40         0.00264
       9 -> 44         0.00395
       9 -> 51         0.00010
       9 -> 55         0.00119
       9 -> 60        -0.00285
       9 -> 67         0.00032
       9 -> 72        -0.00156
       9 -> 74         0.00068
       9 -> 79        -0.00043
       9 -> 88         0.00011
       9 -> 90         0.00014
       9 -> 97        -0.00011
       9 ->100         0.00003
      10 -> 25        -0.01318
      10 -> 33         0.00675
      10 -> 35        -0.00017
      10 -> 46        -0.00621
      10 -> 53         0.00324
      10 -> 56         0.00197
      10 -> 62        -0.00084
      10 -> 73        -0.00021
      10 -> 77        -0.00046
      10 -> 83        -0.00036
      10 -> 92         0.00081
      10 -> 99         0.00009
      11 -> 26         0.01318
      11 -> 30         0.02280
      11 -> 34         0.00675
      11 -> 37        -0.01274
      11 -> 45         0.00621
      11 -> 52         0.00112
      11 -> 54        -0.00324
      11 -> 57        -0.00197
      11 -> 61        -0.00084
      11 -> 63        -0.00292
      11 -> 75         0.00115
      11 -> 76         0.00046
      11 -> 82         0.00036
      11 -> 93         0.00081
      11 -> 94        -0.00010
      11 -> 96        -0.00029
      11 -> 98        -0.00009
      11 ->102         0.00009
      12 -> 25         0.03356
      12 -> 33        -0.01268
      12 -> 46         0.00254
      12 -> 53        -0.00293
      12 -> 56        -0.00059
      12 -> 62        -0.00169
      12 -> 77        -0.00074
      12 -> 83         0.00040
      12 -> 92         0.00057
      12 -> 99         0.00006
      13 -> 28        -0.04033
      13 -> 31        -0.01284
      13 -> 43         0.00187
      13 -> 50         0.00264
      13 -> 59         0.00250
      13 -> 66        -0.00128
      13 -> 78         0.00089
      13 -> 87         0.00060
      13 -> 91         0.00053
      13 ->101        -0.00015
      14 -> 29         0.03726
      14 -> 32         0.02842
      14 -> 44         0.02232
      14 -> 51         0.00394
      14 -> 60        -0.00525
      14 -> 67         0.00056
      14 -> 79        -0.00094
      14 -> 88         0.00070
      14 -> 90        -0.00080
      14 ->100         0.00002
      15 -> 28         0.00166
      15 -> 31         0.03945
      15 -> 39        -0.01389
      15 -> 43         0.00710
      15 -> 50         0.00528
      15 -> 58         0.00436
      15 -> 59        -0.00205
      15 -> 66         0.00053
      15 -> 78        -0.00075
      15 -> 87        -0.00019
      15 -> 91         0.00026
      15 -> 95         0.00019
      15 ->101         0.00003
      16 -> 24        -0.00822
      16 -> 29        -0.00166
      16 -> 32        -0.03945
      16 -> 38         0.02096
      16 -> 40         0.00295
      16 -> 44        -0.00710
      16 -> 51        -0.00528
      16 -> 55         0.00350
      16 -> 60         0.00205
      16 -> 67        -0.00053
      16 -> 72         0.00191
      16 -> 74        -0.00222
      16 -> 79        -0.00075
      16 -> 88         0.00019
      16 -> 90        -0.00026
      16 -> 97         0.00016
      16 ->100        -0.00003
      17 -> 42        -0.00894
      17 -> 70         0.00258
      17 -> 84        -0.00123
      18 -> 25        -0.00371
      18 -> 33         0.05428
      18 -> 35         0.02169
      18 -> 46        -0.00930
      18 -> 53         0.00169
      18 -> 56         0.00684
      18 -> 62        -0.00147
      18 -> 73         0.00241
      18 -> 77        -0.00195
      18 -> 83         0.00043
      18 -> 92         0.00013
      18 -> 99         0.00003
      19 -> 26         0.00371
      19 -> 30         0.00542
      19 -> 34         0.05428
      19 -> 37        -0.02483
      19 -> 45         0.00930
      19 -> 52         0.01013
      19 -> 54        -0.00169
      19 -> 57        -0.00684
      19 -> 61        -0.00147
      19 -> 63        -0.00319
      19 -> 75         0.00087
      19 -> 76         0.00195
      19 -> 82        -0.00043
      19 -> 93         0.00013
      19 -> 94         0.00003
      19 -> 96        -0.00009
      19 -> 98        -0.00003
      19 ->102         0.00003
      20 -> 22         0.49793
      20 -> 47         0.00482
      20 -> 69        -0.00369
      20 -> 81        -0.00043
      20 -> 89        -0.00093
      21 -> 23        -0.49792
      21 -> 36        -0.02230
      21 -> 48        -0.00482
      21 -> 65        -0.00292
      21 -> 68         0.00369
      21 -> 80         0.00043
       7 <- 25         0.00021
       7 <- 33         0.00435
       7 <- 46        -0.00138
       7 <- 53        -0.00064
       7 <- 56         0.00278
       7 <- 62         0.00076
       7 <- 77         0.00105
       7 <- 83         0.00029
       7 <- 92         0.00035
       7 <- 99        -0.00002
       8 <- 28        -0.00492
       8 <- 31        -0.00497
       8 <- 39         0.00315
       8 <- 43        -0.00338
       8 <- 50         0.00012
       8 <- 58        -0.00298
       8 <- 59         0.00152
       8 <- 66         0.00009
       8 <- 78        -0.00038
       8 <- 87         0.00012
       8 <- 91        -0.00007
       8 <- 95         0.00062
       8 <-101        -0.00001
       9 <- 24         0.00784
       9 <- 29         0.00492
       9 <- 32         0.00497
       9 <- 38        -0.00554
       9 <- 40         0.00205
       9 <- 44         0.00338
       9 <- 51        -0.00012
       9 <- 55         0.00076
       9 <- 60        -0.00152
       9 <- 67        -0.00009
       9 <- 72        -0.00101
       9 <- 74         0.00049
       9 <- 79        -0.00038
       9 <- 88        -0.00012
       9 <- 90         0.00007
       9 <- 97        -0.00012
       9 <-100         0.00001
      10 <- 25        -0.00532
      10 <- 33         0.00368
      10 <- 35        -0.00029
      10 <- 46        -0.00464
      10 <- 53         0.00193
      10 <- 56         0.00094
      10 <- 62        -0.00087
      10 <- 73         0.00006
      10 <- 77        -0.00019
      10 <- 83        -0.00013
      10 <- 92         0.00061
      10 <- 99         0.00011
      11 <- 26         0.00532
      11 <- 30         0.01052
      11 <- 34         0.00368
      11 <- 37        -0.00821
      11 <- 45         0.00464
      11 <- 52         0.00094
      11 <- 54        -0.00193
      11 <- 57        -0.00094
      11 <- 61        -0.00087
      11 <- 63        -0.00180
      11 <- 75         0.00067
      11 <- 76         0.00019
      11 <- 82         0.00013
      11 <- 93         0.00061
      11 <- 94        -0.00027
      11 <- 96        -0.00029
      11 <- 98        -0.00011
      11 <-102         0.00007
      12 <- 25         0.01267
      12 <- 33        -0.00587
      12 <- 46         0.00152
      12 <- 53        -0.00183
      12 <- 56        -0.00039
      12 <- 62        -0.00098
      12 <- 77        -0.00055
      12 <- 83         0.00025
      12 <- 92         0.00046
      12 <- 99         0.00005
      13 <- 28        -0.01436
      13 <- 31        -0.00537
      13 <- 43         0.00155
      13 <- 50         0.00146
      13 <- 59         0.00184
      13 <- 66        -0.00123
      13 <- 78         0.00056
      13 <- 87         0.00044
      13 <- 91         0.00044
      13 <-101        -0.00013
      14 <- 29         0.01363
      14 <- 32         0.01237
      14 <- 44         0.01292
      14 <- 51         0.00228
      14 <- 60        -0.00316
      14 <- 67         0.00035
      14 <- 79        -0.00090
      14 <- 88         0.00032
      14 <- 90        -0.00073
      14 <-100        -0.00002
      15 <- 28         0.00085
      15 <- 31         0.01656
      15 <- 39        -0.00713
      15 <- 43         0.00418
      15 <- 50         0.00309
      15 <- 58         0.00274
      15 <- 59        -0.00126
      15 <- 66         0.00023
      15 <- 78        -0.00052
      15 <- 87        -0.00024
      15 <- 91         0.00016
      15 <- 95         0.00014
      15 <-101         0.00001
      16 <- 24        -0.00249
      16 <- 29        -0.00085
      16 <- 32        -0.01656
      16 <- 38         0.01112
      16 <- 40         0.00158
      16 <- 44        -0.00418
      16 <- 51        -0.00309
      16 <- 55         0.00228
      16 <- 60         0.00126
      16 <- 67        -0.00023
      16 <- 72         0.00147
      16 <- 74        -0.00158
      16 <- 79        -0.00052
      16 <- 88         0.00024
      16 <- 90        -0.00016
      16 <- 97         0.00014
      16 <-100        -0.00001
      17 <- 42        -0.00556
      17 <- 70         0.00121
      17 <- 84        -0.00061
      18 <- 25        -0.00099
      18 <- 33         0.02054
      18 <- 35         0.01016
      18 <- 46        -0.00499
      18 <- 53         0.00095
      18 <- 56         0.00408
      18 <- 62        -0.00103
      18 <- 73         0.00177
      18 <- 77        -0.00140
      18 <- 83         0.00039
      18 <- 92         0.00012
      18 <- 99         0.00003
      19 <- 26         0.00099
      19 <- 30         0.00229
      19 <- 34         0.02054
      19 <- 37        -0.01305
      19 <- 45         0.00499
      19 <- 52         0.00607
      19 <- 54        -0.00095
      19 <- 57        -0.00408
      19 <- 61        -0.00103
      19 <- 63        -0.00201
      19 <- 75         0.00048
      19 <- 76         0.00140
      19 <- 82        -0.00039
      19 <- 93         0.00012
      19 <- 94        -0.00012
      19 <- 96        -0.00013
      19 <- 98        -0.00003
      19 <-102         0.00002
      20 <- 22        -0.07778
      20 <- 47         0.00531
      20 <- 69        -0.00352
      20 <- 81         0.00003
      20 <- 89        -0.00042
      21 <- 23         0.07778
      21 <- 36        -0.00867
      21 <- 48        -0.00532
      21 <- 65        -0.00225
      21 <- 68         0.00352
      21 <- 80        -0.00003
 
 Excited state symmetry could not be determined.
 Excited State   5:      Singlet-?Sym    7.8570 eV  157.80 nm  f=0.0000  <S**2>=0.000
       7 -> 89        -0.00042
       8 -> 42         0.00157
       8 -> 70         0.00038
       8 -> 84        -0.00060
       9 -> 41        -0.00157
       9 -> 71        -0.00038
       9 -> 85         0.00060
      10 -> 22         0.02193
      10 -> 47        -0.00360
      10 -> 69        -0.00109
      10 -> 81        -0.00053
      11 -> 23        -0.02193
      11 -> 48         0.00360
      11 -> 68         0.00109
      11 -> 80         0.00053
      12 -> 89         0.00002
      13 -> 64         0.00275
      14 -> 27        -0.04294
      14 -> 49        -0.00552
      14 -> 86         0.00023
      15 -> 42        -0.00175
      15 -> 70        -0.00046
      15 -> 84         0.00015
      16 -> 41         0.00175
      16 -> 71         0.00046
      16 -> 85        -0.00015
      17 -> 39        -0.00021
      17 -> 58         0.00003
      17 -> 95        -0.00006
      18 -> 22         0.49857
      18 -> 47        -0.00649
      18 -> 69         0.00042
      18 -> 81        -0.00035
      19 -> 23        -0.49856
      19 -> 48         0.00649
      19 -> 68        -0.00042
      19 -> 80         0.00035
      20 -> 25        -0.00076
      20 -> 33        -0.00098
      20 -> 46         0.00040
      20 -> 53         0.00016
      20 -> 56         0.00005
      20 -> 77        -0.00008
      20 -> 83        -0.00016
      20 -> 92        -0.00007
      21 -> 26         0.00076
      21 -> 34        -0.00098
      21 -> 45        -0.00040
      21 -> 54        -0.00016
      21 -> 57        -0.00005
      21 -> 76         0.00008
      21 -> 82         0.00016
      21 -> 93        -0.00007
       7 <- 89        -0.00018
       8 <- 42        -0.00008
       8 <- 70         0.00024
       8 <- 84        -0.00022
       9 <- 41         0.00008
       9 <- 71        -0.00024
       9 <- 85         0.00022
      10 <- 22        -0.00040
      10 <- 47         0.00010
      10 <- 69        -0.00055
      11 <- 23         0.00040
      11 <- 48        -0.00010
      11 <- 68         0.00055
      12 <- 89        -0.00002
      13 <- 64         0.00052
      14 <- 27        -0.00014
      14 <- 49         0.00017
      14 <- 86        -0.00009
      15 <- 42         0.00003
      15 <- 70        -0.00005
      15 <- 84         0.00002
      16 <- 41        -0.00003
      16 <- 71         0.00005
      16 <- 85        -0.00002
      17 <- 39        -0.00348
      17 <- 58         0.00188
      17 <- 95        -0.00012
      18 <- 22         0.00004
      18 <- 47         0.00009
      18 <- 69        -0.00003
      18 <- 81         0.00006
      19 <- 23        -0.00004
      19 <- 48        -0.00009
      19 <- 68         0.00003
      19 <- 80        -0.00006
      20 <- 25         0.00032
      20 <- 33        -0.00597
      20 <- 46         0.00251
      20 <- 53        -0.00020
      20 <- 56        -0.00178
      20 <- 62        -0.00019
      20 <- 77        -0.00001
      20 <- 83         0.00018
      20 <- 92        -0.00017
      20 <- 99        -0.00004
      21 <- 26        -0.00032
      21 <- 34        -0.00597
      21 <- 45        -0.00251
      21 <- 54         0.00020
      21 <- 57         0.00178
      21 <- 61        -0.00019
      21 <- 76         0.00001
      21 <- 82        -0.00018
      21 <- 93        -0.00017
      21 <- 98         0.00004
 
 Excited state symmetry could not be determined.
 Excited State   6:      Singlet-?Sym    7.9567 eV  155.82 nm  f=0.0000  <S**2>=0.000
       7 -> 42         0.00081
       7 -> 70        -0.00031
       7 -> 84         0.00007
       8 -> 22         0.00700
       8 -> 47        -0.00055
       8 -> 69         0.00047
       8 -> 81         0.00024
       8 -> 89        -0.00014
       9 -> 23        -0.00700
       9 -> 36         0.00088
       9 -> 48         0.00055
       9 -> 65         0.00006
       9 -> 68        -0.00047
       9 -> 80        -0.00024
      10 -> 42        -0.00058
      10 -> 64         0.00206
      10 -> 70        -0.00040
      10 -> 84        -0.00040
      11 -> 27        -0.00738
      11 -> 41         0.00058
      11 -> 49        -0.00048
      11 -> 71         0.00040
      11 -> 85         0.00040
      11 -> 86        -0.00039
      12 -> 42        -0.00051
      12 -> 70         0.00189
      12 -> 84         0.00033
      13 -> 22         0.02467
      13 -> 47        -0.00080
      13 -> 69        -0.00135
      13 -> 81         0.00066
      14 -> 23         0.01658
      14 -> 48         0.00018
      14 -> 68         0.00231
      14 -> 80         0.00079
      15 -> 22         0.00582
      15 -> 47         0.00062
      15 -> 69        -0.00111
      15 -> 81         0.00068
      15 -> 89         0.00024
      16 -> 23        -0.00582
      16 -> 36        -0.00035
      16 -> 48        -0.00062
      16 -> 65         0.00229
      16 -> 68         0.00111
      16 -> 80        -0.00068
      17 -> 25         0.03503
      17 -> 33        -0.00501
      17 -> 46         0.00326
      17 -> 53        -0.00283
      17 -> 56         0.00112
      17 -> 62         0.00102
      17 -> 77        -0.00015
      17 -> 83        -0.00111
      17 -> 92         0.00019
      17 -> 99        -0.00010
      18 -> 42        -0.00060
      18 -> 64         0.00221
      18 -> 70         0.00140
      18 -> 84        -0.00061
      19 -> 27         0.01065
      19 -> 41         0.00060
      19 -> 49        -0.00061
      19 -> 71        -0.00140
      19 -> 85         0.00061
      19 -> 86         0.00089
      20 -> 28        -0.00459
      20 -> 31         0.00785
[...]
      16 <- 34         0.00192
      16 <- 37         0.00515
      16 <- 45         0.00072
      16 <- 52        -0.00324
      16 <- 54        -0.00027
      16 <- 57        -0.00081
      16 <- 61         0.00126
      16 <- 63         0.00126
      16 <- 75        -0.00023
      16 <- 76        -0.00069
      16 <- 82         0.00030
      16 <- 93        -0.00017
      16 <- 94        -0.00006
      16 <- 96         0.00001
      16 <- 98         0.00001
      16 <-102         0.00002
      17 <- 22        -0.01934
      17 <- 47         0.00249
      17 <- 69        -0.00127
      17 <- 81         0.00001
      18 <- 28         0.00025
      18 <- 31         0.00142
      18 <- 39         0.00666
      18 <- 43         0.00439
      18 <- 50         0.00102
      18 <- 58        -0.00297
      18 <- 59        -0.00062
      18 <- 66        -0.00019
      18 <- 78         0.00109
      18 <- 87         0.00025
      18 <- 91        -0.00017
      18 <-101         0.00001
      19 <- 24         0.00279
      19 <- 29         0.00025
      19 <- 32         0.00142
      19 <- 38        -0.00558
      19 <- 40        -0.00100
      19 <- 44         0.00439
      19 <- 51         0.00102
      19 <- 55        -0.00036
      19 <- 60        -0.00062
      19 <- 67        -0.00019
      19 <- 72         0.00050
      19 <- 74         0.00169
      19 <- 79        -0.00109
      19 <- 88         0.00025
      19 <- 90        -0.00017
      19 <- 97         0.00008
      19 <-100         0.00001
      20 <- 42        -0.00146
      20 <- 64        -0.00427
      20 <- 70        -0.00047
      20 <- 84        -0.00031
      21 <- 27         0.01841
      21 <- 41        -0.00146
      21 <- 49         0.00325
      21 <- 71        -0.00047
      21 <- 85        -0.00031
      21 <- 86        -0.00040
 
 Excited state symmetry could not be determined.
 Excited State  12:      Singlet-?Sym    9.1405 eV  135.64 nm  f=0.0000  <S**2>=0.000
       7 -> 29        -0.00414
       7 -> 32        -0.00573
       7 -> 44        -0.00209
       7 -> 51        -0.00065
       7 -> 60         0.00245
       7 -> 67        -0.00089
       7 -> 79         0.00017
       7 -> 88        -0.00016
       7 -> 90        -0.00041
       7 ->100         0.00002
       8 -> 26         0.00278
       8 -> 30        -0.00801
       8 -> 34        -0.00171
       8 -> 37         0.00734
       8 -> 45        -0.00005
       8 -> 52        -0.00149
       8 -> 54        -0.00089
       8 -> 57         0.00209
       8 -> 61        -0.00112
       8 -> 63         0.00157
       8 -> 75        -0.00067
       8 -> 76         0.00069
       8 -> 82        -0.00019
       8 -> 93        -0.00027
       8 -> 94         0.00009
       8 -> 96         0.00005
       8 ->102        -0.00003
       9 -> 25        -0.00278
       9 -> 33        -0.00172
       9 -> 35         0.00149
       9 -> 46         0.00005
       9 -> 53         0.00089
       9 -> 56        -0.00209
       9 -> 62        -0.00111
       9 -> 73         0.00056
       9 -> 77        -0.00069
       9 -> 83         0.00019
       9 -> 92        -0.00027
      10 -> 24         0.01332
      10 -> 29        -0.01246
      10 -> 32        -0.00729
      10 -> 38        -0.00390
      10 -> 40         0.00185
      10 -> 44        -0.00490
      10 -> 51        -0.00001
      10 -> 55         0.00171
      10 -> 60         0.00159
      10 -> 67        -0.00052
      10 -> 72        -0.00004
      10 -> 74         0.00067
      10 -> 79         0.00046
      10 -> 88         0.00006
      10 -> 90         0.00032
      10 ->100        -0.00010
      11 -> 28         0.01246
      11 -> 31         0.00730
      11 -> 39        -0.00308
      11 -> 43         0.00490
      11 -> 50         0.00001
      11 -> 58         0.00291
      11 -> 59        -0.00159
      11 -> 66         0.00052
      11 -> 78         0.00046
      11 -> 87        -0.00006
      11 -> 91        -0.00032
      11 -> 95        -0.00057
      11 ->101         0.00009
      12 -> 24        -0.00001
      12 -> 29        -0.00315
      12 -> 32         0.01634
      12 -> 44         0.00281
      12 -> 51         0.00365
      12 -> 60        -0.00099
      12 -> 67         0.00031
      12 -> 79         0.00078
      12 -> 88        -0.00005
      12 -> 90         0.00023
      12 ->100        -0.00001
      13 -> 26        -0.01006
      13 -> 34         0.01602
      13 -> 45         0.00008
      13 -> 54         0.00197
      13 -> 57        -0.00188
      13 -> 61         0.00033
      13 -> 76         0.00052
      13 -> 82        -0.00057
      13 -> 93        -0.00054
      13 -> 98         0.00011
      14 -> 25         0.01209
      14 -> 33        -0.02833
      14 -> 46         0.00996
      14 -> 53        -0.00236
      14 -> 56        -0.00524
      14 -> 62         0.00047
      14 -> 77         0.00057
      14 -> 83        -0.00105
      14 -> 92        -0.00077
      14 -> 99         0.00014
      15 -> 26         0.01076
      15 -> 30        -0.00157
      15 -> 34         0.00593
      15 -> 37        -0.01088
      15 -> 45         0.00133
      15 -> 52         0.00587
      15 -> 54        -0.00039
      15 -> 57        -0.00146
      15 -> 61         0.00213
      15 -> 63        -0.00205
      15 -> 75         0.00043
      15 -> 76        -0.00101
      15 -> 82         0.00049
      15 -> 93        -0.00021
      15 -> 94         0.00013
      15 -> 96         0.00002
      15 -> 98         0.00002
      15 ->102        -0.00002
      16 -> 25        -0.01077
      16 -> 33         0.00594
      16 -> 35        -0.00975
      16 -> 46        -0.00134
      16 -> 53         0.00039
      16 -> 56         0.00147
      16 -> 62         0.00212
      16 -> 73        -0.00248
      16 -> 77         0.00100
      16 -> 83        -0.00049
      16 -> 92        -0.00021
      16 -> 99        -0.00002
      17 -> 23         0.66637
      17 -> 48         0.00035
      17 -> 68        -0.00036
      17 -> 80        -0.00061
      18 -> 24         0.03963
      18 -> 29        -0.00045
      18 -> 32        -0.00522
      18 -> 38        -0.01319
      18 -> 40        -0.00263
      18 -> 44        -0.00962
      18 -> 51        -0.00204
      18 -> 55        -0.00029
      18 -> 60         0.00115
      18 -> 67         0.00023
      18 -> 72         0.00058
      18 -> 74         0.00259
      18 -> 79         0.00153
      18 -> 88        -0.00042
      18 -> 90         0.00018
      18 -> 97         0.00010
      18 ->100        -0.00002
      19 -> 28         0.00047
      19 -> 31         0.00524
      19 -> 39        -0.01569
      19 -> 43         0.00963
      19 -> 50         0.00204
      19 -> 58         0.00535
      19 -> 59        -0.00116
      19 -> 66        -0.00024
      19 -> 78         0.00152
      19 -> 87         0.00042
      19 -> 91        -0.00018
      19 ->101         0.00002
      20 -> 27        -0.22743
      20 -> 41        -0.00376
      20 -> 49        -0.00634
      20 -> 71         0.00010
      20 -> 85        -0.00058
      20 -> 86         0.00061
      21 -> 42         0.00375
      21 -> 64        -0.00390
      21 -> 70        -0.00011
      21 -> 84         0.00058
       7 <- 29        -0.00233
       7 <- 32        -0.00342
       7 <- 44        -0.00195
       7 <- 51        -0.00028
       7 <- 60         0.00122
       7 <- 67        -0.00032
       7 <- 79         0.00014
       7 <- 88         0.00002
       7 <- 90        -0.00026
       7 <-100         0.00002
       8 <- 26         0.00109
       8 <- 30        -0.00365
       8 <- 34        -0.00083
       8 <- 37         0.00437
       8 <- 45         0.00001
       8 <- 52        -0.00097
       8 <- 54        -0.00051
       8 <- 57         0.00131
       8 <- 61        -0.00083
       8 <- 63         0.00097
       8 <- 75        -0.00041
       8 <- 76         0.00050
       8 <- 82        -0.00011
       8 <- 93        -0.00021
       8 <- 94         0.00014
       8 <- 96         0.00007
       8 <-102        -0.00004
       9 <- 25        -0.00109
       9 <- 33        -0.00083
       9 <- 35         0.00070
       9 <- 46        -0.00001
       9 <- 53         0.00051
       9 <- 56        -0.00132
       9 <- 62        -0.00083
       9 <- 73         0.00052
       9 <- 77        -0.00050
       9 <- 83         0.00011
       9 <- 92        -0.00021
      10 <- 24         0.00362
      10 <- 29        -0.00459
      10 <- 32        -0.00307
      10 <- 38        -0.00256
      10 <- 40         0.00165
      10 <- 44        -0.00264
      10 <- 51         0.00004
      10 <- 55         0.00093
      10 <- 60         0.00097
      10 <- 67        -0.00039
      10 <- 72         0.00027
      10 <- 74         0.00040
      10 <- 79         0.00041
      10 <- 88         0.00009
      10 <- 90         0.00027
      10 <- 97        -0.00002
      10 <-100        -0.00008
      11 <- 28         0.00457
      11 <- 31         0.00308
      11 <- 39        -0.00159
      11 <- 43         0.00264
      11 <- 50        -0.00004
      11 <- 58         0.00174
      11 <- 59        -0.00097
      11 <- 66         0.00039
      11 <- 78         0.00041
      11 <- 87        -0.00009
      11 <- 91        -0.00027
      11 <- 95        -0.00044
      11 <-101         0.00008
      12 <- 24         0.00002
      12 <- 29        -0.00080
      12 <- 32         0.00629
      12 <- 44         0.00164
      12 <- 51         0.00203
      12 <- 60        -0.00057
      12 <- 67         0.00009
      12 <- 79         0.00055
      12 <- 88        -0.00008
      12 <- 90         0.00014
      12 <-100        -0.00002
      13 <- 26        -0.00256
      13 <- 30         0.00003
      13 <- 34         0.00569
      13 <- 45        -0.00013
      13 <- 54         0.00111
      13 <- 57        -0.00116
      13 <- 61         0.00029
      13 <- 76         0.00039
      13 <- 82        -0.00039
      13 <- 93        -0.00038
      13 <- 98         0.00011
      14 <- 25         0.00236
      14 <- 33        -0.00988
      14 <- 46         0.00516
      14 <- 53        -0.00112
      14 <- 56        -0.00287
      14 <- 62         0.00040
      14 <- 77         0.00034
      14 <- 83        -0.00088
      14 <- 92        -0.00058
      14 <- 99         0.00011
      15 <- 26         0.00243
      15 <- 30        -0.00024
      15 <- 34         0.00194
      15 <- 37        -0.00511
      15 <- 45         0.00073
      15 <- 52         0.00323
      15 <- 54        -0.00024
      15 <- 57        -0.00082
      15 <- 61         0.00128
      15 <- 63        -0.00126
      15 <- 75         0.00025
      15 <- 76        -0.00072
      15 <- 82         0.00031
      15 <- 93        -0.00017
      15 <- 94         0.00006
      15 <- 96        -0.00001
      15 <- 98         0.00001
      15 <-102        -0.00002
      16 <- 25        -0.00241
      16 <- 33         0.00195
      16 <- 35        -0.00399
      16 <- 46        -0.00072
      16 <- 53         0.00025
      16 <- 56         0.00082
      16 <- 62         0.00128
      16 <- 73        -0.00176
      16 <- 77         0.00072
      16 <- 83        -0.00031
      16 <- 92        -0.00017
      16 <- 99        -0.00001
      17 <- 23        -0.01934
      17 <- 48         0.00250
      17 <- 68        -0.00124
      18 <- 24         0.00278
      18 <- 29        -0.00036
      18 <- 32        -0.00143
      18 <- 38        -0.00555
      18 <- 40        -0.00101
      18 <- 44        -0.00435
      18 <- 51        -0.00100
      18 <- 55        -0.00034
      18 <- 60         0.00062
      18 <- 67         0.00017
      18 <- 72         0.00050
      18 <- 74         0.00173
      18 <- 79         0.00112
      18 <- 88        -0.00026
      18 <- 90         0.00017
      18 <- 97         0.00009
      18 <-100        -0.00001
      19 <- 28         0.00025
      19 <- 31         0.00141
      19 <- 39        -0.00659
      19 <- 43         0.00435
      19 <- 50         0.00100
      19 <- 58         0.00298
      19 <- 59        -0.00062
      19 <- 66        -0.00017
      19 <- 78         0.00112
      19 <- 87         0.00026
      19 <- 91        -0.00017
      19 <- 95        -0.00001
      19 <-101         0.00001
      20 <- 27        -0.01841
      20 <- 41        -0.00149
      20 <- 49        -0.00324
      20 <- 71        -0.00050
      20 <- 85        -0.00030
      20 <- 86         0.00042
      21 <- 42         0.00148
      21 <- 64        -0.00431
      21 <- 70         0.00050
      21 <- 84         0.00030
 SavETr:  write IOETrn=   770 NScale= 10 NData=  16 NLR=1 NState=   12 LETran=     226.
 Leave Link  914 at Sun Feb 21 11:09:43 2016, MaxMem=  268435456 cpu:     139.2
 (Enter /home/software/gaussian/gdvH23/gdv/l601.exe)
 Copying SCF densities to generalized density rwf, IOpCl= 0 IROHF=0.

 **********************************************************************

   Populations using transition density between ground and state  3.

 **********************************************************************

 Alpha  occ. eigenvalues --  -10.18915 -10.18888 -10.18888 -10.18832 -10.18832
 Alpha  occ. eigenvalues --  -10.18805  -0.84735  -0.73964  -0.73964  -0.59619
 Alpha  occ. eigenvalues --   -0.59619  -0.51676  -0.45547  -0.43910  -0.41601
 Alpha  occ. eigenvalues --   -0.41601  -0.36044  -0.33934  -0.33934  -0.24694
 Alpha  occ. eigenvalues --   -0.24694
 Alpha virt. eigenvalues --    0.00369   0.00369   0.08622   0.14104   0.14104
 Alpha virt. eigenvalues --    0.16462   0.17979   0.17979   0.18668   0.30212
 Alpha virt. eigenvalues --    0.30212   0.32020   0.32020   0.47413   0.52661
 Alpha virt. eigenvalues --    0.54915   0.55109   0.56545   0.59314   0.60127
 Alpha virt. eigenvalues --    0.60130   0.60194   0.60194   0.62585   0.62585
 Alpha virt. eigenvalues --    0.66709   0.66710   0.74449   0.83120   0.83121
 Alpha virt. eigenvalues --    0.83651   0.85650   0.85651   0.93203   0.93978
 Alpha virt. eigenvalues --    0.93978   0.95804   1.08480   1.08481   1.14334
 Alpha virt. eigenvalues --    1.14334   1.20036   1.26129   1.39622   1.43085
 Alpha virt. eigenvalues --    1.43088   1.48734   1.48734   1.51620   1.51620
 Alpha virt. eigenvalues --    1.75301   1.79148   1.84552   1.88961   1.95947
 Alpha virt. eigenvalues --    1.95948   2.06719   2.06719   2.15318   2.15318
 Alpha virt. eigenvalues --    2.15614   2.15615   2.31070   2.31070   2.32447
 Alpha virt. eigenvalues --    2.54138   2.54138   2.65975   2.70187   2.70188
 Alpha virt. eigenvalues --    2.72427   2.72427   2.75517   3.01965   3.40543
 Alpha virt. eigenvalues --    4.08376   4.11532   4.11532   4.32797   4.32797
 Alpha virt. eigenvalues --    4.66421
          Condensed to atoms (all electrons):
              1          2          3          4          5          6
     1  C   -0.032724   0.074633  -0.013108   0.000000  -0.013108   0.074633
     2  C    0.074633  -0.016375   0.000000   0.013108   0.000000  -0.026210
     3  C   -0.013108   0.000000   0.016375  -0.074633   0.026210   0.000000
     4  C    0.000000   0.013108  -0.074633   0.032724  -0.074633   0.013108
     5  C   -0.013108   0.000000   0.026210  -0.074633   0.016375   0.000000
     6  C    0.074633  -0.026210   0.000000   0.013108   0.000000  -0.016375
     7  H    0.004557  -0.002750   0.003005   0.000202   0.003005  -0.002750
     8  H    0.021921   0.002278  -0.024670   0.001632   0.000101   0.001373
     9  H   -0.001632   0.024670  -0.002278  -0.021921  -0.001373  -0.000101
    10  H   -0.000202  -0.003005   0.002750  -0.004557   0.002750  -0.003005
    11  H   -0.001632  -0.000101  -0.001373  -0.021921  -0.002278   0.024670
    12  H    0.021921   0.001373   0.000101   0.001632  -0.024670   0.002278
              7          8          9         10         11         12
     1  C    0.004557   0.021921  -0.001632  -0.000202  -0.001632   0.021921
     2  C   -0.002750   0.002278   0.024670  -0.003005  -0.000101   0.001373
     3  C    0.003005  -0.024670  -0.002278   0.002750  -0.001373   0.000101
     4  C    0.000202   0.001632  -0.021921  -0.004557  -0.021921   0.001632
     5  C    0.003005   0.000101  -0.001373   0.002750  -0.002278  -0.024670
     6  C   -0.002750   0.001373  -0.000101  -0.003005   0.024670   0.002278
     7  H    0.089500  -0.002343  -0.000017   0.000000  -0.000017  -0.002343
     8  H   -0.002343   0.044746   0.000000   0.000017   0.000000  -0.000033
     9  H   -0.000017   0.000000  -0.044746   0.002343   0.000033   0.000000
    10  H    0.000000   0.000017   0.002343  -0.089500   0.002343   0.000017
    11  H   -0.000017   0.000000   0.000033   0.002343  -0.044746   0.000000
    12  H   -0.002343  -0.000033   0.000000   0.000017   0.000000   0.044746
 Mulliken charges:
              1
     1  C    5.864741
     2  C    5.932380
     3  C    6.067620
     4  C    6.135259
     5  C    6.067620
     6  C    5.932380
     7  H    0.909951
     8  H    0.954980
     9  H    1.045020
    10  H    1.090049
    11  H    1.045020
    12  H    0.954980
 Sum of Mulliken charges =  42.00000
 Mulliken charges with hydrogens summed into heavy atoms:
              1
     1  C    6.774692
     2  C    6.887359
     3  C    7.112641
     4  C    7.225308
     5  C    7.112641
     6  C    6.887359
 Sum of Mulliken charges with hydrogens summed into heavy atoms =  42.00000
 Electronic spatial extent (au):  <R**2>=              0.0000
 Charge=              0.0000 electrons
 Dipole moment (field-independent basis, Debye):
    X=              0.0000    Y=             -6.3266    Z=              0.0000  Tot=              6.3266
 Quadrupole moment (field-independent basis, Debye-Ang):
   XX=              0.0000   YY=              0.0000   ZZ=              0.0000
   XY=              0.0000   XZ=              0.0000   YZ=            -12.6532
 Traceless Quadrupole moment (field-independent basis, Debye-Ang):
   XX=              0.0000   YY=              0.0000   ZZ=              0.0000
   XY=              0.0000   XZ=              0.0000   YZ=            -12.6532
 Octapole moment (field-independent basis, Debye-Ang**2):
  XXX=              0.0000  YYY=            -20.0651  ZZZ=              0.0000  XYY=              0.0000
  XXY=             -6.6876  XXZ=              0.0000  XZZ=              0.0000  YZZ=            -31.3954
  YYZ=              0.0000  XYZ=              0.0000
 Hexadecapole moment (field-independent basis, Debye-Ang**3):
 XXXX=              0.0000 YYYY=              0.0000 ZZZZ=              0.0000 XXXY=              0.0000
 XXXZ=              0.0000 YYYX=              0.0000 YYYZ=            -40.1302 ZZZX=              0.0000
 ZZZY=            -87.1470 XXYY=              0.0000 XXZZ=              0.0000 YYZZ=              0.0000
 XXYZ=            -13.3752 YYXZ=              0.0000 ZZXY=              0.0000
 N-N= 2.030353199391D+02 E-N=-2.792902194237D-12  KE= 5.564411778569D-13
 Leave Link  601 at Sun Feb 21 11:09:43 2016, MaxMem=  268435456 cpu:       0.1
 (Enter /home/software/gaussian/gdvH23/gdv/l9999.exe)

 Test job not archived.
 1\1\GINC-ECUBA\SP\RB3LYP TD-FC\6-31G(d)\C6H6\DPADULA\21-Feb-2016\0\\#p
  td=nstates=12 b3lyp/6-31g(d) Iop(9/40=5) density(transition=3) nosymm
 \\Title Card Required\\0,1\C,0,0.,1.394991,2.\C,0,1.208097,0.697495,2.
 \C,0,1.208097,-0.697495,2.\C,0,0.,-1.394991,2.\C,0,-1.208097,-0.697495
 ,2.\C,0,-1.208097,0.697495,2.\H,0,0.,2.494601,2.\H,0,2.160388,1.2473,2
 .\H,0,2.160388,-1.2473,2.\H,0,0.,-2.494601,2.\H,0,-2.160388,-1.2473,2.
 \H,0,-2.160388,1.2473,2.\\Version=ES64L-GDVRevH.23\HF=-232.2480502\RMS
 D=4.220e-09\PG=D06H [3C2'(H1C1.C1H1)]\\@


 MAN IS THE MEASURE OF ALL THINGS.
  -- PROTAGORAS (5TH CENTURY B.C.)
 Job cpu time:  0 days  0 hours  2 minutes 32.1 seconds.
 File lengths (MBytes):  RWF=     37 Int=      0 D2E=      0 Chk=      6 Scr=      1
 Normal termination of Gaussian DV at Sun Feb 21 11:09:43 2016.
