Title Card Required                                                     
SP        RB3LYP TD-FC                                                6-31G(d)            
Number of atoms                            I               12
Info1-9                                    I   N=           9
          21          21           0           0           0         111
           1         218        -501
Charge                                     I                0
Multiplicity                               I                1
Number of electrons                        I               42
Number of alpha electrons                  I               21
Number of beta electrons                   I               21
Number of basis functions                  I              102
Number of independent functions            I              102
Number of point charges in /Mol/           I                0
Number of translation vectors              I                0
Atomic numbers                             I   N=          12
           6           6           6           6           6           6
           1           1           1           1           1           1
Nuclear charges                            R   N=          12
  6.00000000E+00  6.00000000E+00  6.00000000E+00  6.00000000E+00  6.00000000E+00
  6.00000000E+00  1.00000000E+00  1.00000000E+00  1.00000000E+00  1.00000000E+00
  1.00000000E+00  1.00000000E+00
Current cartesian coordinates              R   N=          36
  0.00000000E+00  2.63615094E+00 -3.77945225E+00  2.28297246E+00  1.31807452E+00
 -3.77945225E+00  2.28297246E+00 -1.31807452E+00 -3.77945225E+00  0.00000000E+00
 -2.63615094E+00 -3.77945225E+00 -2.28297246E+00 -1.31807452E+00 -3.77945225E+00
 -2.28297246E+00  1.31807452E+00 -3.77945225E+00  0.00000000E+00  4.71411268E+00
 -3.77945225E+00  4.08254164E+00  2.35705540E+00 -3.77945225E+00  4.08254164E+00
 -2.35705540E+00 -3.77945225E+00  0.00000000E+00 -4.71411268E+00 -3.77945225E+00
 -4.08254164E+00 -2.35705540E+00 -3.77945225E+00 -4.08254164E+00  2.35705540E+00
 -3.77945225E+00
Force Field                                I                0
Int Atom Types                             I   N=          12
           0           0           0           0           0           0
           0           0           0           0           0           0
MM charges                                 R   N=          12
  0.00000000E+00  0.00000000E+00  0.00000000E+00  0.00000000E+00  0.00000000E+00
  0.00000000E+00  0.00000000E+00  0.00000000E+00  0.00000000E+00  0.00000000E+00
  0.00000000E+00  0.00000000E+00
Integer atomic weights                     I   N=          12
          12          12          12          12          12          12
           1           1           1           1           1           1
Real atomic weights                        R   N=          12
  1.20000000E+01  1.20000000E+01  1.20000000E+01  1.20000000E+01  1.20000000E+01
  1.20000000E+01  1.00782504E+00  1.00782504E+00  1.00782504E+00  1.00782504E+00
  1.00782504E+00  1.00782504E+00
Atom fragment info                         I   N=          12
           0           0           0           0           0           0
           0           0           0           0           0           0
Atom residue num                           I   N=          12
           0           0           0           0           0           0
           0           0           0           0           0           0
Nuclear spins                              I   N=          12
           0           0           0           0           0           0
           1           1           1           1           1           1
Nuclear ZEff                               R   N=          12
 -3.60000000E+00 -3.60000000E+00 -3.60000000E+00 -3.60000000E+00 -3.60000000E+00
 -3.60000000E+00 -1.00000000E+00 -1.00000000E+00 -1.00000000E+00 -1.00000000E+00
 -1.00000000E+00 -1.00000000E+00
Nuclear ZNuc                               R   N=          12
  6.00000000E+00  6.00000000E+00  6.00000000E+00  6.00000000E+00  6.00000000E+00
  6.00000000E+00  1.00000000E+00  1.00000000E+00  1.00000000E+00  1.00000000E+00
  1.00000000E+00  1.00000000E+00
Nuclear QMom                               R   N=          12
  0.00000000E+00  0.00000000E+00  0.00000000E+00  0.00000000E+00  0.00000000E+00
  0.00000000E+00  0.00000000E+00  0.00000000E+00  0.00000000E+00  0.00000000E+00
  0.00000000E+00  0.00000000E+00
Nuclear GFac                               R   N=          12
  0.00000000E+00  0.00000000E+00  0.00000000E+00  0.00000000E+00  0.00000000E+00
  0.00000000E+00  2.79284600E+00  2.79284600E+00  2.79284600E+00  2.79284600E+00
  2.79284600E+00  2.79284600E+00
MicOpt                                     I   N=          12
          -1          -1          -1          -1          -1          -1
          -1          -1          -1          -1          -1          -1
Number of contracted shells                I               36
Number of primitive shells                 I               90
Pure/Cartesian d shells                    I                1
Pure/Cartesian f shells                    I                0
Highest angular momentum                   I                2
Largest degree of contraction              I                6
Shell types                                I   N=          36
           0          -1          -1           2           0          -1
          -1           2           0          -1          -1           2
           0          -1          -1           2           0          -1
          -1           2           0          -1          -1           2
           0           0           0           0           0           0
           0           0           0           0           0           0
Number of primitives per shell             I   N=          36
           6           3           1           1           6           3
           1           1           6           3           1           1
           6           3           1           1           6           3
           1           1           6           3           1           1
           3           1           3           1           3           1
           3           1           3           1           3           1
Shell to atom map                          I   N=          36
           1           1           1           1           2           2
           2           2           3           3           3           3
           4           4           4           4           5           5
           5           5           6           6           6           6
           7           7           8           8           9           9
          10          10          11          11          12          12
Primitive exponents                        R   N=          90
  3.04752488E+03  4.57369518E+02  1.03948685E+02  2.92101553E+01  9.28666296E+00
  3.16392696E+00  7.86827235E+00  1.88128854E+00  5.44249258E-01  1.68714478E-01
  8.00000000E-01  3.04752488E+03  4.57369518E+02  1.03948685E+02  2.92101553E+01
  9.28666296E+00  3.16392696E+00  7.86827235E+00  1.88128854E+00  5.44249258E-01
  1.68714478E-01  8.00000000E-01  3.04752488E+03  4.57369518E+02  1.03948685E+02
  2.92101553E+01  9.28666296E+00  3.16392696E+00  7.86827235E+00  1.88128854E+00
  5.44249258E-01  1.68714478E-01  8.00000000E-01  3.04752488E+03  4.57369518E+02
  1.03948685E+02  2.92101553E+01  9.28666296E+00  3.16392696E+00  7.86827235E+00
  1.88128854E+00  5.44249258E-01  1.68714478E-01  8.00000000E-01  3.04752488E+03
  4.57369518E+02  1.03948685E+02  2.92101553E+01  9.28666296E+00  3.16392696E+00
  7.86827235E+00  1.88128854E+00  5.44249258E-01  1.68714478E-01  8.00000000E-01
  3.04752488E+03  4.57369518E+02  1.03948685E+02  2.92101553E+01  9.28666296E+00
  3.16392696E+00  7.86827235E+00  1.88128854E+00  5.44249258E-01  1.68714478E-01
  8.00000000E-01  1.87311370E+01  2.82539436E+00  6.40121692E-01  1.61277759E-01
  1.87311370E+01  2.82539436E+00  6.40121692E-01  1.61277759E-01  1.87311370E+01
  2.82539436E+00  6.40121692E-01  1.61277759E-01  1.87311370E+01  2.82539436E+00
  6.40121692E-01  1.61277759E-01  1.87311370E+01  2.82539436E+00  6.40121692E-01
  1.61277759E-01  1.87311370E+01  2.82539436E+00  6.40121692E-01  1.61277759E-01
Contraction coefficients                   R   N=          90
  1.83473713E-03  1.40373228E-02  6.88426223E-02  2.32184443E-01  4.67941348E-01
  3.62311985E-01 -1.19332420E-01 -1.60854152E-01  1.14345644E+00  1.00000000E+00
  1.00000000E+00  1.83473713E-03  1.40373228E-02  6.88426223E-02  2.32184443E-01
  4.67941348E-01  3.62311985E-01 -1.19332420E-01 -1.60854152E-01  1.14345644E+00
  1.00000000E+00  1.00000000E+00  1.83473713E-03  1.40373228E-02  6.88426223E-02
  2.32184443E-01  4.67941348E-01  3.62311985E-01 -1.19332420E-01 -1.60854152E-01
  1.14345644E+00  1.00000000E+00  1.00000000E+00  1.83473713E-03  1.40373228E-02
  6.88426223E-02  2.32184443E-01  4.67941348E-01  3.62311985E-01 -1.19332420E-01
 -1.60854152E-01  1.14345644E+00  1.00000000E+00  1.00000000E+00  1.83473713E-03
  1.40373228E-02  6.88426223E-02  2.32184443E-01  4.67941348E-01  3.62311985E-01
 -1.19332420E-01 -1.60854152E-01  1.14345644E+00  1.00000000E+00  1.00000000E+00
  1.83473713E-03  1.40373228E-02  6.88426223E-02  2.32184443E-01  4.67941348E-01
  3.62311985E-01 -1.19332420E-01 -1.60854152E-01  1.14345644E+00  1.00000000E+00
  1.00000000E+00  3.34946043E-02  2.34726953E-01  8.13757326E-01  1.00000000E+00
  3.34946043E-02  2.34726953E-01  8.13757326E-01  1.00000000E+00  3.34946043E-02
  2.34726953E-01  8.13757326E-01  1.00000000E+00  3.34946043E-02  2.34726953E-01
  8.13757326E-01  1.00000000E+00  3.34946043E-02  2.34726953E-01  8.13757326E-01
  1.00000000E+00  3.34946043E-02  2.34726953E-01  8.13757326E-01  1.00000000E+00
P(S=P) Contraction coefficients            R   N=          90
  0.00000000E+00  0.00000000E+00  0.00000000E+00  0.00000000E+00  0.00000000E+00
  0.00000000E+00  6.89990666E-02  3.16423961E-01  7.44308291E-01  1.00000000E+00
  0.00000000E+00  0.00000000E+00  0.00000000E+00  0.00000000E+00  0.00000000E+00
  0.00000000E+00  0.00000000E+00  6.89990666E-02  3.16423961E-01  7.44308291E-01
  1.00000000E+00  0.00000000E+00  0.00000000E+00  0.00000000E+00  0.00000000E+00
  0.00000000E+00  0.00000000E+00  0.00000000E+00  6.89990666E-02  3.16423961E-01
  7.44308291E-01  1.00000000E+00  0.00000000E+00  0.00000000E+00  0.00000000E+00
  0.00000000E+00  0.00000000E+00  0.00000000E+00  0.00000000E+00  6.89990666E-02
  3.16423961E-01  7.44308291E-01  1.00000000E+00  0.00000000E+00  0.00000000E+00
  0.00000000E+00  0.00000000E+00  0.00000000E+00  0.00000000E+00  0.00000000E+00
  6.89990666E-02  3.16423961E-01  7.44308291E-01  1.00000000E+00  0.00000000E+00
  0.00000000E+00  0.00000000E+00  0.00000000E+00  0.00000000E+00  0.00000000E+00
  0.00000000E+00  6.89990666E-02  3.16423961E-01  7.44308291E-01  1.00000000E+00
  0.00000000E+00  0.00000000E+00  0.00000000E+00  0.00000000E+00  0.00000000E+00
  0.00000000E+00  0.00000000E+00  0.00000000E+00  0.00000000E+00  0.00000000E+00
  0.00000000E+00  0.00000000E+00  0.00000000E+00  0.00000000E+00  0.00000000E+00
  0.00000000E+00  0.00000000E+00  0.00000000E+00  0.00000000E+00  0.00000000E+00
  0.00000000E+00  0.00000000E+00  0.00000000E+00  0.00000000E+00  0.00000000E+00
Coordinates of each shell                  R   N=         108
  0.00000000E+00  2.63615094E+00 -3.77945225E+00  0.00000000E+00  2.63615094E+00
 -3.77945225E+00  0.00000000E+00  2.63615094E+00 -3.77945225E+00  0.00000000E+00
  2.63615094E+00 -3.77945225E+00  2.28297246E+00  1.31807452E+00 -3.77945225E+00
  2.28297246E+00  1.31807452E+00 -3.77945225E+00  2.28297246E+00  1.31807452E+00
 -3.77945225E+00  2.28297246E+00  1.31807452E+00 -3.77945225E+00  2.28297246E+00
 -1.31807452E+00 -3.77945225E+00  2.28297246E+00 -1.31807452E+00 -3.77945225E+00
  2.28297246E+00 -1.31807452E+00 -3.77945225E+00  2.28297246E+00 -1.31807452E+00
 -3.77945225E+00  0.00000000E+00 -2.63615094E+00 -3.77945225E+00  0.00000000E+00
 -2.63615094E+00 -3.77945225E+00  0.00000000E+00 -2.63615094E+00 -3.77945225E+00
  0.00000000E+00 -2.63615094E+00 -3.77945225E+00 -2.28297246E+00 -1.31807452E+00
 -3.77945225E+00 -2.28297246E+00 -1.31807452E+00 -3.77945225E+00 -2.28297246E+00
 -1.31807452E+00 -3.77945225E+00 -2.28297246E+00 -1.31807452E+00 -3.77945225E+00
 -2.28297246E+00  1.31807452E+00 -3.77945225E+00 -2.28297246E+00  1.31807452E+00
 -3.77945225E+00 -2.28297246E+00  1.31807452E+00 -3.77945225E+00 -2.28297246E+00
  1.31807452E+00 -3.77945225E+00  0.00000000E+00  4.71411268E+00 -3.77945225E+00
  0.00000000E+00  4.71411268E+00 -3.77945225E+00  4.08254164E+00  2.35705540E+00
 -3.77945225E+00  4.08254164E+00  2.35705540E+00 -3.77945225E+00  4.08254164E+00
 -2.35705540E+00 -3.77945225E+00  4.08254164E+00 -2.35705540E+00 -3.77945225E+00
  0.00000000E+00 -4.71411268E+00 -3.77945225E+00  0.00000000E+00 -4.71411268E+00
 -3.77945225E+00 -4.08254164E+00 -2.35705540E+00 -3.77945225E+00 -4.08254164E+00
 -2.35705540E+00 -3.77945225E+00 -4.08254164E+00  2.35705540E+00 -3.77945225E+00
 -4.08254164E+00  2.35705540E+00 -3.77945225E+00
Constraint Structure                       R   N=          36
  0.00000000E+00  2.63615094E+00 -3.77945225E+00  2.28297246E+00  1.31807452E+00
 -3.77945225E+00  2.28297246E+00 -1.31807452E+00 -3.77945225E+00  0.00000000E+00
 -2.63615094E+00 -3.77945225E+00 -2.28297246E+00 -1.31807452E+00 -3.77945225E+00
 -2.28297246E+00  1.31807452E+00 -3.77945225E+00  0.00000000E+00  4.71411268E+00
 -3.77945225E+00  4.08254164E+00  2.35705540E+00 -3.77945225E+00  4.08254164E+00
 -2.35705540E+00 -3.77945225E+00  0.00000000E+00 -4.71411268E+00 -3.77945225E+00
 -4.08254164E+00 -2.35705540E+00 -3.77945225E+00 -4.08254164E+00  2.35705540E+00
 -3.77945225E+00
Num ILSW                                   I              100
ILSW                                       I   N=         100
           0           1           0           0           2           0
           0           0           0           0         402          -1
           0           0           0           0           0           0
           0           0           0           0           0           0
           1           1           0           0           0           0
           0           0      100000           0          -1           0
           0           0           0           0           0           0
           0           0           0           1           0           0
           0           0           1           0           0           0
           0           0           4          41           0           0
           0           0           5           0           0           0
           0           0           0           0           0           0
           0           0           0           0           0           0
           0           0           0           0           0           0
           0           0           0           0           0           0
           0           0           0           0           0           0
           0           0           0           0
Num RLSW                                   I               41
RLSW                                       R   N=          41
  8.00000000E-01  7.20000000E-01  1.00000000E+00  8.10000000E-01  2.00000000E-01
  0.00000000E+00  0.00000000E+00  1.00000000E+00  0.00000000E+00  0.00000000E+00
  0.00000000E+00  0.00000000E+00  1.00000000E+00  0.00000000E+00  0.00000000E+00
  0.00000000E+00  0.00000000E+00  1.00000000E+00  0.00000000E+00  0.00000000E+00
  0.00000000E+00  0.00000000E+00  1.00000000E+00  0.00000000E+00  0.00000000E+00
  0.00000000E+00  0.00000000E+00  1.00000000E+00  0.00000000E+00  0.00000000E+00
  0.00000000E+00  0.00000000E+00  1.00000000E+00  0.00000000E+00  0.00000000E+00
  0.00000000E+00  0.00000000E+00  0.00000000E+00  1.00000000E+00  1.00000000E+00
  0.00000000E+00
MxBond                                     I                3
NBond                                      I   N=          12
           3           3           3           3           3           3
           1           1           1           1           1           1
IBond                                      I   N=          36
           2           6           7           1           3           8
           2           4           9           3           5          10
           4           6          11           1           5          12
           1           0           0           2           0           0
           3           0           0           4           0           0
           5           0           0           6           0           0
RBond                                      R   N=          36
  1.50000000E+00  1.50000000E+00  1.00000000E+00  1.50000000E+00  1.50000000E+00
  1.00000000E+00  1.50000000E+00  1.50000000E+00  1.00000000E+00  1.50000000E+00
  1.50000000E+00  1.00000000E+00  1.50000000E+00  1.50000000E+00  1.00000000E+00
  1.50000000E+00  1.50000000E+00  1.00000000E+00  1.00000000E+00  0.00000000E+00
  0.00000000E+00  1.00000000E+00  0.00000000E+00  0.00000000E+00  1.00000000E+00
  0.00000000E+00  0.00000000E+00  1.00000000E+00  0.00000000E+00  0.00000000E+00
  1.00000000E+00  0.00000000E+00  0.00000000E+00  1.00000000E+00  0.00000000E+00
  0.00000000E+00
Virial Ratio                               R      2.010440739722901E+00
SCF Energy                                 R     -2.322480501840589E+02
CIS Energy                                 R     -2.320436520882267E+02
Total Energy                               R     -2.320436520882267E+02
Post-SCF wavefunction norm                 R      1.000000000000000E+00
RMS Density                                R      4.220124130578558E-09
External E-field                           R   N=          35
  0.00000000E+00  0.00000000E+00  0.00000000E+00  0.00000000E+00  0.00000000E+00
  0.00000000E+00  0.00000000E+00  0.00000000E+00  0.00000000E+00  0.00000000E+00
  0.00000000E+00  0.00000000E+00  0.00000000E+00  0.00000000E+00  0.00000000E+00
  0.00000000E+00  0.00000000E+00  0.00000000E+00  0.00000000E+00  0.00000000E+00
  0.00000000E+00  0.00000000E+00  0.00000000E+00  0.00000000E+00  0.00000000E+00
  0.00000000E+00  0.00000000E+00  0.00000000E+00  0.00000000E+00  0.00000000E+00
  0.00000000E+00  0.00000000E+00  0.00000000E+00  0.00000000E+00  0.00000000E+00
IOpCl                                      I                0
IROHF                                      I                0
Alpha Orbital Energies                     R   N=         102
 -1.01891489E+01 -1.01888817E+01 -1.01888806E+01 -1.01883234E+01 -1.01883222E+01
 -1.01880544E+01 -8.47352697E-01 -7.39638004E-01 -7.39637985E-01 -5.96189015E-01
 -5.96188346E-01 -5.16759458E-01 -4.55466605E-01 -4.39096306E-01 -4.16014378E-01
 -4.16013934E-01 -3.60441451E-01 -3.39343017E-01 -3.39341802E-01 -2.46939293E-01
 -2.46936011E-01  3.68982595E-03  3.69132921E-03  8.62217388E-02  1.41036403E-01
  1.41038191E-01  1.64617474E-01  1.79786566E-01  1.79788723E-01  1.86682243E-01
  3.02122089E-01  3.02123605E-01  3.20198349E-01  3.20202076E-01  4.74131876E-01
  5.26605534E-01  5.49145282E-01  5.51085097E-01  5.65447915E-01  5.93139347E-01
  6.01269670E-01  6.01300573E-01  6.01936076E-01  6.01937998E-01  6.25848568E-01
  6.25850867E-01  6.67089028E-01  6.67095339E-01  7.44492507E-01  8.31204302E-01
  8.31209429E-01  8.36511876E-01  8.56504783E-01  8.56505320E-01  9.32030556E-01
  9.39778371E-01  9.39778810E-01  9.58044397E-01  1.08479905E+00  1.08480913E+00
  1.14333631E+00  1.14334306E+00  1.20036035E+00  1.26129104E+00  1.39621871E+00
  1.43085494E+00  1.43087938E+00  1.48734125E+00  1.48734221E+00  1.51620416E+00
  1.51620419E+00  1.75301211E+00  1.79148190E+00  1.84551678E+00  1.88961094E+00
  1.95947362E+00  1.95947652E+00  2.06718579E+00  2.06718685E+00  2.15318148E+00
  2.15318196E+00  2.15614255E+00  2.15614816E+00  2.31070301E+00  2.31070367E+00
  2.32447089E+00  2.54138123E+00  2.54138171E+00  2.65974637E+00  2.70187324E+00
  2.70187574E+00  2.72426839E+00  2.72426940E+00  2.75517485E+00  3.01965357E+00
  3.40543418E+00  4.08375670E+00  4.11532238E+00  4.11532435E+00  4.32796591E+00
  4.32796676E+00  4.66421375E+00
Alpha MO coefficients                      R   N=       10404
  4.05685358E-01  1.97664747E-02  3.18982398E-14  1.18444624E-04  5.96456056E-16
 -2.54507808E-03 -1.80751840E-13 -3.48245147E-04  3.53015744E-16 -4.02779602E-03
 -3.94365375E-03 -4.06705658E-03 -5.00343119E-15 -6.23681773E-16  6.20819870E-16
  4.04856651E-01  1.97247670E-02  1.03018875E-04  5.92430593E-05 -4.38393751E-17
 -2.52842822E-03 -3.05231936E-04 -1.74808749E-04 -8.52415682E-17 -3.95725169E-03
 -3.99934322E-03 -4.05920284E-03  4.22968995E-05  1.42352968E-16 -1.74467780E-16
  4.04856652E-01  1.97247670E-02  1.03018875E-04 -5.92430592E-05 -2.38544537E-16
 -2.52842823E-03 -3.05231936E-04  1.74808748E-04 -6.78655808E-17 -3.95725169E-03
 -3.99934322E-03 -4.05920284E-03 -4.22968995E-05 -6.37167331E-16 -2.80693000E-17
  4.05685358E-01  1.97664747E-02  2.09114262E-14 -1.18444624E-04  5.98194356E-16
 -2.54507808E-03 -8.85637371E-14  3.48245147E-04  4.55051911E-16 -4.02779602E-03
 -3.94365375E-03 -4.06705658E-03  1.39492006E-15 -5.97949082E-16 -8.00213193E-16
  4.04856652E-01  1.97247670E-02 -1.03018875E-04 -5.92430592E-05 -3.30606264E-16
 -2.52842823E-03  3.05231936E-04  1.74808748E-04 -3.15378082E-16 -3.95725169E-03
 -3.99934322E-03 -4.05920284E-03  4.22968995E-05 -4.21117161E-16 -1.20164191E-16
  4.04856652E-01  1.97247670E-02 -1.03018875E-04  5.92430593E-05 -3.62913750E-16
 -2.52842823E-03  3.05231936E-04 -1.74808749E-04 -2.31023544E-16 -3.95725169E-03
 -3.99934322E-03 -4.05920284E-03 -4.22968995E-05  1.19666199E-16 -9.69032326E-16
 -1.87097049E-04  8.87471649E-04 -1.86797807E-04  8.86538159E-04 -1.86797807E-04
  8.86538159E-04 -1.87097049E-04  8.87471649E-04 -1.86797807E-04  8.86538159E-04
 -1.86797807E-04  8.86538159E-04  5.73470440E-01  2.84249427E-02  3.34170028E-13
 -4.96205304E-05 -1.21325556E-18 -5.87463025E-03 -1.73940151E-12  3.89667077E-04
  4.71895406E-17 -5.54706330E-03 -5.52973131E-03 -5.57482105E-03 -5.05836914E-14
  2.18961874E-16  2.58476584E-17  2.86148980E-01  1.41820681E-02  1.09229085E-04
 -2.37993414E-04  7.68865928E-17 -2.90784911E-03 -5.14821412E-04  1.25700480E-03
 -2.32708389E-17 -2.78902288E-03 -2.73947653E-03 -2.78216975E-03  2.24950376E-05
 -9.89284237E-17 -1.55816661E-17 -2.86148981E-01 -1.41820681E-02 -1.09229085E-04
 -2.37993413E-04 -4.77164110E-17  2.90784912E-03  5.14821411E-04  1.25700480E-03
  5.75798133E-18  2.78902289E-03  2.73947654E-03  2.78216976E-03  2.24950376E-05
 -7.63433732E-17 -3.21764657E-16 -5.73470440E-01 -2.84249427E-02  3.11185078E-13
 -4.96205305E-05  2.01894487E-18  5.87463025E-03 -1.60491222E-12  3.89667077E-04
  2.97030109E-16  5.54706329E-03  5.52973131E-03  5.57482105E-03  3.76060383E-14
  3.03652223E-17 -8.31188324E-17 -2.86148980E-01 -1.41820681E-02  1.09229085E-04
 -2.37993414E-04  1.36725882E-16  2.90784911E-03 -5.14821412E-04  1.25700480E-03
  6.42728225E-17  2.78902288E-03  2.73947653E-03  2.78216975E-03 -2.24950376E-05
  1.43789778E-16 -1.10393031E-16  2.86148981E-01  1.41820681E-02 -1.09229085E-04
 -2.37993413E-04 -6.60895667E-17 -2.90784912E-03  5.14821411E-04  1.25700480E-03
 -1.37636522E-16 -2.78902289E-03 -2.73947654E-03 -2.78216976E-03 -2.24950376E-05
  9.04462127E-17  1.65331422E-16 -2.37805258E-04  9.02567389E-04 -1.18464283E-04
  4.52593898E-04  1.18464284E-04 -4.52593899E-04  2.37805258E-04 -9.02567389E-04
  1.18464283E-04 -4.52593898E-04 -1.18464284E-04  4.52593899E-04  6.69854729E-10
  3.32107074E-11 -3.01046451E-04 -5.42001999E-14 -5.18573136E-16 -7.28401133E-12
  1.55421895E-03  6.87781054E-13  1.00631961E-15 -6.46720059E-12 -6.44847209E-12
 -6.50658230E-12  4.15885322E-05  2.33178104E-17 -1.47762138E-16  4.96301730E-01
  2.45991976E-02 -1.12264684E-04  1.08985807E-04  1.21974171E-16 -5.07054549E-03
  6.74707968E-04 -5.07782751E-04 -9.07917780E-16 -4.77416063E-03 -4.81293916E-03
 -4.82492107E-03 -2.80958397E-06 -1.16076052E-17 -1.20416135E-16  4.96301730E-01
  2.45991976E-02 -1.12264685E-04 -1.08985808E-04 -1.89062908E-16 -5.07054549E-03
  6.74707969E-04  5.07782754E-04  5.05227780E-16 -4.77416062E-03 -4.81293915E-03
 -4.82492106E-03  2.80958402E-06 -3.72599342E-17  1.24761182E-17 -5.60045694E-10
 -2.77953260E-11 -3.01046451E-04 -5.76537306E-14  1.19849291E-16  6.01855620E-12
  1.55421895E-03  5.86992425E-13  4.93597830E-17  5.42669965E-12  5.40542048E-12
  5.43112455E-12 -4.15885322E-05 -1.38304169E-16 -1.43598726E-16 -4.96301730E-01
 -2.45991976E-02 -1.12264684E-04  1.08985807E-04 -1.84095981E-16  5.07054549E-03
  6.74707968E-04 -5.07782751E-04 -6.58954214E-17  4.77416063E-03  4.81293916E-03
  4.82492107E-03  2.80958399E-06 -8.86214444E-17  2.16071068E-16 -4.96301730E-01
 -2.45991976E-02 -1.12264685E-04 -1.08985808E-04  1.71836642E-16  5.07054548E-03
  6.74707969E-04  5.07782754E-04 -5.50517178E-16  4.77416062E-03  4.81293915E-03
  4.82492106E-03 -2.80958403E-06  6.46703233E-17 -6.85794704E-17 -2.83769431E-13
  1.01779026E-12 -2.05690018E-04  7.82403625E-04 -2.05690018E-04  7.82403624E-04
  2.38926667E-13 -8.09243470E-13  2.05690018E-04 -7.82403625E-04  2.05690018E-04
 -7.82403624E-04  5.72907508E-01  2.88518006E-02  6.08146162E-13 -2.69540035E-04
 -4.79041301E-17 -1.15065924E-02 -3.75453813E-12  2.42897667E-03 -1.13322891E-16
 -5.01880100E-03 -5.27060141E-03 -5.43432515E-03 -3.09771637E-13 -2.80010810E-16
 -3.98447803E-16 -2.87039372E-01 -1.44544476E-02  2.18621867E-04 -1.09473034E-04
  1.77688738E-16  5.75695879E-03 -1.68539663E-03  4.91240037E-04  2.21951212E-16
  2.53100264E-03  2.62522159E-03  2.72303906E-03  1.15265005E-04 -6.67632320E-16
  6.77411211E-16 -2.87039370E-01 -1.44544475E-02  2.18621866E-04  1.09473035E-04
  4.51948858E-16  5.75695874E-03 -1.68539663E-03 -4.91240045E-04  8.62439525E-17
  2.53100262E-03  2.62522157E-03  2.72303904E-03 -1.15265004E-04  1.61969316E-16
 -4.92057979E-16  5.72907508E-01  2.88518006E-02 -5.87813371E-13  2.69540035E-04
 -7.92630645E-17 -1.15065924E-02  3.65496633E-12 -2.42897668E-03 -1.55973229E-17
 -5.01880101E-03 -5.27060141E-03 -5.43432515E-03 -3.05995103E-13 -5.68889745E-16
  9.18548385E-17 -2.87039372E-01 -1.44544476E-02 -2.18621867E-04  1.09473034E-04
 -1.53706743E-16  5.75695879E-03  1.68539664E-03 -4.91240036E-04 -4.95173541E-16
  2.53100264E-03  2.62522159E-03  2.72303906E-03  1.15265005E-04 -4.28881130E-16
  1.84690762E-16 -2.87039369E-01 -1.44544475E-02 -2.18621866E-04 -1.09473035E-04
 -1.30035419E-16  5.75695874E-03  1.68539663E-03  4.91240046E-04  7.84706486E-18
  2.53100262E-03  2.62522157E-03  2.72303904E-03 -1.15265004E-04 -2.38553885E-16
  2.48794209E-17 -2.05547508E-04  6.38667001E-04  1.03041409E-04 -3.20616998E-04
  1.03041409E-04 -3.20616995E-04 -2.05547508E-04  6.38667001E-04  1.03041409E-04
 -3.20616998E-04  1.03041408E-04 -3.20616995E-04  1.54579176E-09  7.79162648E-11
 -2.35697616E-04 -7.22197574E-13 -1.77879256E-16 -3.26137901E-11  1.46429252E-03
  7.50703031E-12  5.24209753E-16 -1.35464278E-11 -1.42113758E-11 -1.46364408E-11
  1.20943516E-04  1.00375312E-16 -5.12295834E-16  4.96490790E-01  2.50029069E-02
 -1.43136189E-04 -2.18735894E-04  1.86052807E-17 -9.96714641E-03  1.45540312E-03
  1.68572009E-03 -6.84160390E-16 -4.55863688E-03 -4.35891260E-03 -4.70966128E-03
 -7.87742452E-05 -1.35773753E-16  4.92768333E-16 -4.96490792E-01 -2.50029070E-02
  1.43136190E-04 -2.18735894E-04  3.33900307E-17  9.96714644E-03 -1.45540313E-03
  1.68572009E-03  6.42960953E-16  4.55863689E-03  4.35891262E-03  4.70966129E-03
 -7.87742458E-05  3.27080970E-16 -5.03937770E-16  1.38064751E-09  6.94362049E-11
  2.35697616E-04  6.40577754E-13 -8.62336048E-17 -2.59376013E-11 -1.46429252E-03
 -4.81062784E-12 -3.09125184E-16 -1.21112310E-11 -1.27199618E-11 -1.31320241E-11
  1.20943516E-04 -3.86087558E-16 -4.69022655E-16  4.96490790E-01  2.50029069E-02
  1.43136189E-04  2.18735894E-04 -1.18354215E-16 -9.96714642E-03 -1.45540312E-03
 -1.68572010E-03  1.56350450E-16 -4.55863688E-03 -4.35891260E-03 -4.70966128E-03
 -7.87742452E-05  2.32158002E-16  5.15753498E-17 -4.96490792E-01 -2.50029070E-02
 -1.43136190E-04  2.18735894E-04  2.59864916E-16  9.96714645E-03  1.45540313E-03
 -1.68572009E-03 -4.39269015E-16  4.55863689E-03  4.35891262E-03  4.70966130E-03
 -7.87742458E-05  6.02233792E-16 -5.62987413E-17 -5.84053494E-13  1.51649852E-12
 -1.78160733E-04  5.53836166E-04  1.78160733E-04 -5.53836167E-04 -4.66963140E-13
  1.76708062E-12 -1.78160733E-04  5.53836165E-04  1.78160734E-04 -5.53836167E-04
 -4.05010724E-01 -2.10211321E-02 -3.19170585E-14  2.81212167E-04  2.07962328E-16
  2.04301835E-02  2.02917686E-13 -8.46148150E-03  4.46368853E-16  3.31141958E-03
  3.53478475E-03  3.62197444E-03  1.65819778E-14 -1.48473559E-16  4.81088758E-18
  4.05839104E-01  2.10622149E-02 -2.43468920E-04 -1.40869135E-04  6.21432704E-17
 -2.04386791E-02  7.32768225E-03  4.23214774E-03 -4.97321944E-16 -3.48697455E-03
 -3.37524247E-03 -3.63003069E-03 -1.11660275E-04  1.48444759E-17  8.33861063E-17
 -4.05839103E-01 -2.10622149E-02  2.43468920E-04 -1.40869135E-04 -1.43053776E-16
  2.04386791E-02 -7.32768225E-03  4.23214774E-03  2.19239619E-16  3.48697455E-03
  3.37524247E-03  3.63003069E-03 -1.11660275E-04 -1.46270530E-16 -1.58333906E-16
  4.05010724E-01  2.10211321E-02  3.13229832E-14  2.81212167E-04  3.23460446E-17
 -2.04301835E-02 -2.03539654E-13 -8.46148150E-03 -2.01994671E-16 -3.31141958E-03
 -3.53478475E-03 -3.62197444E-03  1.55891677E-14 -3.97268381E-16  1.24484435E-16
 -4.05839103E-01 -2.10622148E-02 -2.43468920E-04 -1.40869135E-04 -1.36879522E-16
  2.04386791E-02  7.32768225E-03  4.23214774E-03 -1.67768632E-18  3.48697455E-03
  3.37524247E-03  3.63003069E-03  1.11660275E-04  2.01486354E-16  9.14534607E-17
  4.05839103E-01  2.10622148E-02  2.43468920E-04 -1.40869135E-04 -4.80906757E-17
 -2.04386791E-02 -7.32768225E-03  4.23214774E-03 -3.99698645E-16 -3.48697455E-03