 Entering Gaussian System, Link 0=gdv
 Input=opt.com
 Output=opt.log
 Initial command:
 /home/software/gaussian/gdvH23/gdv/l1.exe "/home/dpadula/gauscr/Gau-24584.inp" -scrdir="/home/dpadula/gauscr/"
 Entering Link 1 = /home/software/gaussian/gdvH23/gdv/l1.exe PID=     24586.
  
 Copyright (c) 1988,1990,1992,1993,1995,1998,2003,2009,2012,
            Gaussian, Inc.  All Rights Reserved.
  
 This is the private, development version of
 the Gaussian(R) DV system of programs. It is based on
 the Gaussian(R) 09 system (copyright 2009, Gaussian, Inc.),
 the Gaussian(R) 03 system (copyright 2003, Gaussian, Inc.),
 the Gaussian(R) 98 system (copyright 1998, Gaussian, Inc.),
 the Gaussian(R) 94 system (copyright 1995, Gaussian, Inc.),
 the Gaussian 92(TM) system (copyright 1992, Gaussian, Inc.),
 the Gaussian 90(TM) system (copyright 1990, Gaussian, Inc.),
 the Gaussian 88(TM) system (copyright 1988, Gaussian, Inc.),
 the Gaussian 86(TM) system (copyright 1986, Carnegie Mellon
 University), and the Gaussian 82(TM) system (copyright 1983,
 Carnegie Mellon University). Gaussian is a federally registered
 trademark of Gaussian, Inc.
  
 This software contains proprietary and confidential information,
 including trade secrets, belonging to Gaussian, Inc.
  
 This software is provided under written license and may be
 used, copied, transmitted, or stored only in accord with that
 written license.
  
 The following legend is applicable only to US Government
 contracts under FAR:
  
                    RESTRICTED RIGHTS LEGEND
  
 Use, reproduction and disclosure by the US Government is
 subject to restrictions as set forth in subparagraphs (a)
 and (c) of the Commercial Computer Software - Restricted
 Rights clause in FAR 52.227-19.
  
 Gaussian, Inc.
 340 Quinnipiac St., Bldg. 40, Wallingford CT 06492
  
  
 ---------------------------------------------------------------
 Warning -- This program may not be used in any manner that
 competes with the business of Gaussian, Inc. or will provide
 assistance to any competitor of Gaussian, Inc.  The licensee
 of this program is prohibited from giving any competitor of
 Gaussian, Inc. access to this program.  By using this program,
 the user acknowledges that Gaussian, Inc. is engaged in the
 business of creating and licensing software in the field of
 computational chemistry and represents and warrants to the
 licensee that it is not a competitor of Gaussian, Inc. and that
 it will not use this program in any manner prohibited above.
 ---------------------------------------------------------------
  

 Cite this work as:
 Gaussian Development Version, Revision H.23,
 M. J. Frisch, G. W. Trucks, H. B. Schlegel, G. E. Scuseria, 
 M. A. Robb, J. R. Cheeseman, G. Scalmani, V. Barone, B. Mennucci, 
 G. A. Petersson, H. Nakatsuji, M. Caricato, X. Li, H. P. Hratchian, 
 A. F. Izmaylov, J. Bloino, G. Zheng, J. L. Sonnenberg, W. Liang, 
 M. Hada, M. Ehara, K. Toyota, R. Fukuda, J. Hasegawa, M. Ishida, 
 T. Nakajima, Y. Honda, O. Kitao, H. Nakai, T. Vreven, 
 J. A. Montgomery, Jr., J. E. Peralta, F. Ogliaro, M. Bearpark, 
 J. J. Heyd, E. Brothers, K. N. Kudin, V. N. Staroverov, T. Keith, 
 R. Kobayashi, J. Normand, K. Raghavachari, A. Rendell, J. C. Burant, 
 S. S. Iyengar, J. Tomasi, M. Cossi, N. Rega, J. M. Millam, M. Klene, 
 J. E. Knox, J. B. Cross, V. Bakken, C. Adamo, J. Jaramillo, 
 R. Gomperts, R. E. Stratmann, O. Yazyev, A. J. Austin, R. Cammi, 
 C. Pomelli, J. W. Ochterski, R. L. Martin, K. Morokuma, 
 V. G. Zakrzewski, G. A. Voth, P. Salvador, J. J. Dannenberg, 
 S. Dapprich, P. V. Parandekar, N. J. Mayhall, A. D. Daniels, 
 O. Farkas, J. B. Foresman, J. V. Ortiz, J. Cioslowski, 
 and D. J. Fox, Gaussian, Inc., Wallingford CT, 2010.
 
 ******************************************
 Gaussian DV:  ES64L-GDVRevH.23 23-Jul-2012
                21-Feb-2016 
 ******************************************
 %nproc=5
 Will use up to    5 processors via shared memory.
 %mem=4GB
 -----------------
 #p b3lyp 6-31g(d)
 -----------------
 1/38=1/1;
 2/12=2,17=6,18=5,40=1/2;
 3/5=1,6=6,7=1,11=2,16=1,25=1,30=1,74=-5/1,2,3;
 4//1;
 5/5=2,38=5/2;
 6/7=2,8=2,9=2,10=2,28=1/1;
 99/5=1,9=1/99;
 Leave Link    1 at Sun Feb 21 10:56:10 2016, MaxMem=  536870912 cpu:       0.2
 (Enter /home/software/gaussian/gdvH23/gdv/l101.exe)
 -------------------
 Title Card Required
 -------------------
 Symbolic Z-matrix:
 Charge =  0 Multiplicity = 1
 C                     1.2081    0.6975    0. 
 C                     0.        1.39499   0. 
 C                    -1.2081    0.6975    0. 
 C                    -1.2081   -0.6975    0. 
 C                     0.       -1.39499   0. 
 C                     1.2081   -0.6975    0. 
 H                     2.16039   1.2473    0. 
 H                     0.        2.4946    0. 
 H                    -2.16039   1.2473    0. 
 H                    -2.16039  -1.2473    0. 
 H                     0.       -2.4946    0. 
 H                     2.16039  -1.2473    0. 
 
 NAtoms=     12 NQM=        0 NQMF=       0 NMMI=     12 NMMIF=      0
                NMic=       0 NMicF=      0.
                    Isotopes and Nuclear Properties:
 (Nuclear quadrupole moments (NQMom) in fm**2, nuclear magnetic moments (NMagM)
  in nuclear magnetons)

  Atom         1           2           3           4           5           6           7           8           9          10
 IAtWgt=          12          12          12          12          12          12           1           1           1           1
 AtmWgt=  12.0000000  12.0000000  12.0000000  12.0000000  12.0000000  12.0000000   1.0078250   1.0078250   1.0078250   1.0078250
 NucSpn=           0           0           0           0           0           0           1           1           1           1
 AtZEff=   0.0000000   0.0000000   0.0000000   0.0000000   0.0000000   0.0000000   0.0000000   0.0000000   0.0000000   0.0000000
 NQMom=    0.0000000   0.0000000   0.0000000   0.0000000   0.0000000   0.0000000   0.0000000   0.0000000   0.0000000   0.0000000
 NMagM=    0.0000000   0.0000000   0.0000000   0.0000000   0.0000000   0.0000000   2.7928460   2.7928460   2.7928460   2.7928460
 AtZNuc=   6.0000000   6.0000000   6.0000000   6.0000000   6.0000000   6.0000000   1.0000000   1.0000000   1.0000000   1.0000000

  Atom        11          12
 IAtWgt=           1           1
 AtmWgt=   1.0078250   1.0078250
 NucSpn=           1           1
 AtZEff=   0.0000000   0.0000000
 NQMom=    0.0000000   0.0000000
 NMagM=    2.7928460   2.7928460
 AtZNuc=   1.0000000   1.0000000
 Leave Link  101 at Sun Feb 21 10:56:10 2016, MaxMem=  536870912 cpu:       0.1
 (Enter /home/software/gaussian/gdvH23/gdv/l202.exe)
                          Input orientation:                          
 ---------------------------------------------------------------------
 Center     Atomic      Atomic             Coordinates (Angstroms)
 Number     Number       Type             X           Y           Z
 ---------------------------------------------------------------------
      1          6           0        1.208097    0.697495    0.000000
      2          6           0        0.000000    1.394991    0.000000
      3          6           0       -1.208097    0.697495    0.000000
      4          6           0       -1.208097   -0.697495    0.000000
      5          6           0        0.000000   -1.394991    0.000000
      6          6           0        1.208097   -0.697495    0.000000
      7          1           0        2.160388    1.247300    0.000000
      8          1           0        0.000000    2.494601    0.000000
      9          1           0       -2.160388    1.247300    0.000000
     10          1           0       -2.160388   -1.247300    0.000000
     11          1           0        0.000000   -2.494601    0.000000
     12          1           0        2.160388   -1.247300    0.000000
 ---------------------------------------------------------------------
                    Distance matrix (angstroms):
                    1          2          3          4          5
     1  C    0.000000
     2  C    1.394991   0.000000
     3  C    2.416195   1.394991   0.000000
     4  C    2.789981   2.416195   1.394991   0.000000
     5  C    2.416195   2.789981   2.416195   1.394991   0.000000
     6  C    1.394991   2.416195   2.789981   2.416195   1.394991
     7  H    1.099610   2.165430   3.413060   3.889592   3.413060
     8  H    2.165430   1.099610   2.165430   3.413060   3.889592
     9  H    3.413060   2.165430   1.099610   2.165430   3.413060
    10  H    3.889592   3.413060   2.165430   1.099610   2.165430
    11  H    3.413060   3.889592   3.413060   2.165430   1.099610
    12  H    2.165430   3.413060   3.889592   3.413060   2.165430
                    6          7          8          9         10
     6  C    0.000000
     7  H    2.165430   0.000000
     8  H    3.413060   2.494601   0.000000
     9  H    3.889592   4.320776   2.494601   0.000000
    10  H    3.413060   4.989202   4.320776   2.494601   0.000000
    11  H    2.165430   4.320776   4.989202   4.320776   2.494601
    12  H    1.099610   2.494601   4.320776   4.989202   4.320776
                   11         12
    11  H    0.000000
    12  H    2.494601   0.000000
 Stoichiometry    C6H6
 Framework group  D6H[3C2'(HC.CH)]
 Deg. of freedom     2
 Full point group                 D6H     NOp  24
 Largest Abelian subgroup         D2H     NOp   8
 Largest concise Abelian subgroup D2      NOp   4
                         Standard orientation:                         
 ---------------------------------------------------------------------
 Center     Atomic      Atomic             Coordinates (Angstroms)
 Number     Number       Type             X           Y           Z
 ---------------------------------------------------------------------
      1          6           0        0.000000    1.394991    0.000000
      2          6           0        1.208097    0.697495    0.000000
      3          6           0        1.208097   -0.697495    0.000000
      4          6           0        0.000000   -1.394991    0.000000
      5          6           0       -1.208097   -0.697495    0.000000
      6          6           0       -1.208097    0.697495    0.000000
      7          1           0        0.000000    2.494601    0.000000
      8          1           0        2.160388    1.247300    0.000000
      9          1           0        2.160388   -1.247300    0.000000
     10          1           0        0.000000   -2.494601    0.000000
     11          1           0       -2.160388   -1.247300    0.000000
     12          1           0       -2.160388    1.247300    0.000000
 ---------------------------------------------------------------------
 Rotational constants (GHZ):      5.6866487      5.6866487      2.8433243
 Leave Link  202 at Sun Feb 21 10:56:10 2016, MaxMem=  536870912 cpu:       0.0
 (Enter /home/software/gaussian/gdvH23/gdv/l301.exe)
 Standard basis: 6-31G(d) (6D, 7F)
 Ernie: Thresh=  0.10000D-02 Tol=  0.10000D-05 Strict=F.
 There are    23 symmetry adapted cartesian basis functions of AG  symmetry.
 There are    16 symmetry adapted cartesian basis functions of B1G symmetry.
 There are     5 symmetry adapted cartesian basis functions of B2G symmetry.
 There are     7 symmetry adapted cartesian basis functions of B3G symmetry.
 There are     5 symmetry adapted cartesian basis functions of AU  symmetry.
 There are     7 symmetry adapted cartesian basis functions of B1U symmetry.
 There are    23 symmetry adapted cartesian basis functions of B2U symmetry.
 There are    16 symmetry adapted cartesian basis functions of B3U symmetry.
 There are    23 symmetry adapted basis functions of AG  symmetry.
 There are    16 symmetry adapted basis functions of B1G symmetry.
 There are     5 symmetry adapted basis functions of B2G symmetry.
 There are     7 symmetry adapted basis functions of B3G symmetry.
 There are     5 symmetry adapted basis functions of AU  symmetry.
 There are     7 symmetry adapted basis functions of B1U symmetry.
 There are    23 symmetry adapted basis functions of B2U symmetry.
 There are    16 symmetry adapted basis functions of B3U symmetry.
   102 basis functions,   192 primitive gaussians,   102 cartesian basis functions
    21 alpha electrons       21 beta electrons
       nuclear repulsion energy       203.0352996490 Hartrees.
 IExCor=  402 DFT=T Ex+Corr=B3LYP ExCW=0 ScaHFX=  0.200000
 ScaDFX=  0.800000  0.720000  1.000000  0.810000 ScalE2=  1.000000  1.000000
 IRadAn=      0 IRanWt=     -1 IRanGd=            0 ICorTp=0 IEmpDi=  4
 NAtoms=   12 NActive=   12 NUniq=    2 SFac= 4.00D+00 NAtFMM=   60 NAOKFM=F Big=F
 Integral buffers will be    131072 words long.
 Raffenetti 2 integral format.
 Two-electron integral symmetry is turned on.
 Leave Link  301 at Sun Feb 21 10:56:11 2016, MaxMem=  536870912 cpu:       0.3
 (Enter /home/software/gaussian/gdvH23/gdv/l302.exe)
 NPDir=0 NMtPBC=     1 NCelOv=     1 NCel=       1 NClECP=     1 NCelD=      1
         NCelK=      1 NCelE2=     1 NClLst=     1 CellRange=     0.0.
 One-electron integrals computed using PRISM.
 One-electron integral symmetry used in STVInt
 NBasis=   102 RedAO= T EigKep=  4.40D-04  NBF=    23    16     5     7     5     7    23    16
 NBsUse=   102 1.00D-06 EigRej= -1.00D+00 NBFU=    23    16     5     7     5     7    23    16
 Precomputing XC quadrature grid using
 IXCGrd= 4 IRadAn=           0 IRanWt=          -1 IRanGd=           0 AccXCQ= 0.00D+00.
 Generated NRdTot=       0 NPtTot=           0 NUsed=           0 NTot=          32
 NSgBfM=   102   102   102   102   102 NAtAll=    12    12.
 Leave Link  302 at Sun Feb 21 10:56:17 2016, MaxMem=  536870912 cpu:      25.2
 (Enter /home/software/gaussian/gdvH23/gdv/l303.exe)
 DipDrv:  MaxL=1.
 Leave Link  303 at Sun Feb 21 10:56:17 2016, MaxMem=  536870912 cpu:       0.5
 (Enter /home/software/gaussian/gdvH23/gdv/l401.exe)
 ExpMin= 1.61D-01 ExpMax= 3.05D+03 ExpMxC= 4.57D+02 IAcc=1 IRadAn=         1 AccDes= 0.00D+00
 Harris functional with IExCor=  402 and IRadAn=       1 diagonalized for initial guess.
 HarFok:  IExCor=  402 AccDes= 0.00D+00 IRadAn=         1 IDoV= 1 UseB2=F ITyADJ=14
 ICtDFT=  3500011 ScaDFX=  1.000000  1.000000  1.000000  1.000000
 FoFCou: FMM=F IPFlag=           0 FMFlag=      100000 FMFlg1=           0
         NFxFlg=           0 DoJE=T BraDBF=F KetDBF=T FulRan=T
         wScrn=  0.000000 ICntrl=     500 IOpCl=  0 I1Cent=   200000004 NGrid=           0
         NMat0=    1 NMatS0=      1 NMatT0=    0 NMatD0=    1 NMtDS0=    0 NMtDT0=    0
 Petite list used in FoFCou.
 Harris En= -232.275040357997    
 JPrj=0 DoOrth=F DoCkMO=F.
 Initial guess orbital symmetries:
       Occupied  (A1G) (E1U) (E1U) (E2G) (E2G) (B1U) (A1G) (E1U)
                 (E1U) (E2G) (E2G) (A1G) (B2U) (B1U) (E1U) (E1U)
                 (A2U) (E2G) (E2G) (E1G) (E1G)
       Virtual   (E2U) (E2U) (A1G) (B2G) (E1U) (E1U) (E2G) (E2G)
                 (B1U) (E2G) (E2G) (E1U) (E1U) (B2U) (B1U) (A2U)
                 (A2G) (A1G) (E2G) (E2G) (E1G) (E1G) (A1G) (E1U)
                 (E1U) (E2U) (E2U) (B2G) (B1U) (E2G) (E2G) (E1U)
                 (E1U) (A1G) (E1U) (E1U) (A2G) (E2G) (E2G) (E1U)
                 (E1U) (B1U) (B1G) (A2U) (E2G) (E2G) (E2U) (E2U)
                 (E1G) (E1G) (A1G) (B2U) (A1G) (B1U) (E1U) (E1U)
                 (E2G) (E2G) (E1U) (E1U) (E2U) (E2U) (E1G) (E1G)
                 (B2G) (E2G) (E2G) (A1U) (E2G) (E2G) (E1U) (E1U)
                 (B1U) (A2G) (B1U) (A1G) (E1U) (E1U) (E2G) (E2G)
                 (B1U)
 The electronic state of the initial guess is 1-A1G.
 Leave Link  401 at Sun Feb 21 10:56:23 2016, MaxMem=  536870912 cpu:      21.0
 (Enter /home/software/gaussian/gdvH23/gdv/l502.exe)
 Closed shell SCF:
 Using DIIS extrapolation, IDIIS=  1040.
 Integral symmetry usage will be decided dynamically.
 Keep R1 ints in memory in symmetry-blocked form, NReq=15740220.
 IVT=       52310 IEndB=       52310 NGot=   536870912 MDV=   534930426
 LenX=   534930426 LenY=   534919581
 Requested convergence on RMS density matrix=1.00D-08 within 128 cycles.
 Requested convergence on MAX density matrix=1.00D-06.
 Requested convergence on             energy=1.00D-06.
 No special actions if energy rises.
 FoFCou: FMM=F IPFlag=           0 FMFlag=           0 FMFlg1=           0
         NFxFlg=           0 DoJE=F BraDBF=F KetDBF=F FulRan=T
         wScrn=  0.000000 ICntrl=     600 IOpCl=  0 I1Cent=           0 NGrid=           0
         NMat0=    1 NMatS0=   5253 NMatT0=    0 NMatD0=    1 NMtDS0=    0 NMtDT0=    0
 Petite list used in FoFCou.
 Integral accuracy reduced to 1.0D-05 until final iterations.

 Cycle   1  Pass 0  IDiag  1:
 E= -232.093045068692    
 DIIS: error= 3.58D-02 at cycle   1 NSaved=   1.
 NSaved= 1 IEnMin= 1 EnMin= -232.093045068692     IErMin= 1 ErrMin= 3.58D-02
 ErrMax= 3.58D-02  0.00D+00 EMaxC= 1.00D-01 BMatC= 1.35D-01 BMatP= 1.35D-01
 IDIUse=3 WtCom= 6.42D-01 WtEn= 3.58D-01
 Coeff-Com:  0.100D+01
 Coeff-En:   0.100D+01
 Coeff:      0.100D+01
 Gap=     0.250 Goal=   None    Shift=    0.000
 GapD=    0.250 DampG=1.000 DampE=0.500 DampFc=0.5000 IDamp=-1.
 Damping current iteration by 5.00D-01
 RMSDP=8.40D-03 MaxDP=1.15D-01              OVMax= 1.61D-01

 Cycle   2  Pass 0  IDiag  1:
 E= -232.165938321521     Delta-E=       -0.072893252828 Rises=F Damp=T
 DIIS: error= 8.40D-03 at cycle   2 NSaved=   2.
 NSaved= 2 IEnMin= 2 EnMin= -232.165938321521     IErMin= 2 ErrMin= 8.40D-03
 ErrMax= 8.40D-03  0.00D+00 EMaxC= 1.00D-01 BMatC= 6.56D-03 BMatP= 1.35D-01
 IDIUse=3 WtCom= 9.16D-01 WtEn= 8.40D-02
 Coeff-Com:  0.159D-01 0.984D+00
 Coeff-En:   0.256D-01 0.974D+00
 Coeff:      0.167D-01 0.983D+00
 Gap=     0.254 Goal=   None    Shift=    0.000
 RMSDP=1.76D-03 MaxDP=1.85D-02 DE=-7.29D-02 OVMax= 9.38D-02

 Cycle   3  Pass 0  IDiag  1:
 E= -232.247197840253     Delta-E=       -0.081259518732 Rises=F Damp=F
 DIIS: error= 4.47D-03 at cycle   3 NSaved=   3.
 NSaved= 3 IEnMin= 3 EnMin= -232.247197840253     IErMin= 3 ErrMin= 4.47D-03
 ErrMax= 4.47D-03  0.00D+00 EMaxC= 1.00D-01 BMatC= 9.65D-04 BMatP= 6.56D-03
 IDIUse=3 WtCom= 9.55D-01 WtEn= 4.47D-02
 Coeff-Com: -0.360D-01 0.232D+00 0.804D+00
 Coeff-En:   0.000D+00 0.000D+00 0.100D+01
 Coeff:     -0.344D-01 0.221D+00 0.813D+00
 Gap=     0.250 Goal=   None    Shift=    0.000
 RMSDP=4.29D-04 MaxDP=3.61D-03 DE=-8.13D-02 OVMax= 7.65D-03

 Cycle   4  Pass 0  IDiag  1:
 E= -232.248066870916     Delta-E=       -0.000869030664 Rises=F Damp=F
 DIIS: error= 5.66D-04 at cycle   4 NSaved=   4.
 NSaved= 4 IEnMin= 4 EnMin= -232.248066870916     IErMin= 4 ErrMin= 5.66D-04
 ErrMax= 5.66D-04  0.00D+00 EMaxC= 1.00D-01 BMatC= 3.02D-05 BMatP= 9.65D-04
 IDIUse=3 WtCom= 9.94D-01 WtEn= 5.66D-03
 Coeff-Com: -0.849D-02 0.173D-01 0.186D+00 0.806D+00
 Coeff-En:   0.000D+00 0.000D+00 0.000D+00 0.100D+01
 Coeff:     -0.845D-02 0.172D-01 0.185D+00 0.807D+00
 Gap=     0.251 Goal=   None    Shift=    0.000
 RMSDP=5.63D-05 MaxDP=4.32D-04 DE=-8.69D-04 OVMax= 9.88D-04

 Cycle   5  Pass 0  IDiag  1:
 E= -232.248094220132     Delta-E=       -0.000027349216 Rises=F Damp=F
 DIIS: error= 1.67D-05 at cycle   5 NSaved=   5.
 NSaved= 5 IEnMin= 5 EnMin= -232.248094220132     IErMin= 5 ErrMin= 1.67D-05
 ErrMax= 1.67D-05  0.00D+00 EMaxC= 1.00D-01 BMatC= 2.82D-08 BMatP= 3.02D-05
 IDIUse=1 WtCom= 1.00D+00 WtEn= 0.00D+00
 Coeff-Com: -0.298D-03-0.347D-03 0.706D-02 0.533D-01 0.940D+00
 Coeff:     -0.298D-03-0.347D-03 0.706D-02 0.533D-01 0.940D+00
 Gap=     0.251 Goal=   None    Shift=    0.000
 RMSDP=3.12D-06 MaxDP=2.75D-05 DE=-2.73D-05 OVMax= 4.42D-05

 Initial convergence to 1.0D-05 achieved.  Increase integral accuracy.
 Cycle   6  Pass 1  IDiag  1:
 E= -232.248052109118     Delta-E=        0.000042111014 Rises=F Damp=F
 DIIS: error= 7.79D-05 at cycle   1 NSaved=   1.
 NSaved= 1 IEnMin= 1 EnMin= -232.248052109118     IErMin= 1 ErrMin= 7.79D-05
 ErrMax= 7.79D-05  0.00D+00 EMaxC= 1.00D-01 BMatC= 1.16D-07 BMatP= 1.16D-07
 IDIUse=1 WtCom= 1.00D+00 WtEn= 0.00D+00
 Coeff-Com:  0.100D+01
 Coeff:      0.100D+01
 Gap=     0.251 Goal=   None    Shift=    0.000
 RMSDP=3.12D-06 MaxDP=2.75D-05 DE= 4.21D-05 OVMax= 1.98D-04

 Cycle   7  Pass 1  IDiag  1:
 E= -232.248052274425     Delta-E=       -0.000000165308 Rises=F Damp=F
 DIIS: error= 3.71D-06 at cycle   2 NSaved=   2.
 NSaved= 2 IEnMin= 2 EnMin= -232.248052274425     IErMin= 2 ErrMin= 3.71D-06
 ErrMax= 3.71D-06  0.00D+00 EMaxC= 1.00D-01 BMatC= 7.75D-10 BMatP= 1.16D-07
 IDIUse=1 WtCom= 1.00D+00 WtEn= 0.00D+00
 Coeff-Com: -0.331D-01 0.103D+01
 Coeff:     -0.331D-01 0.103D+01
 Gap=     0.251 Goal=   None    Shift=    0.000
 RMSDP=6.93D-07 MaxDP=5.15D-06 DE=-1.65D-07 OVMax= 1.10D-05

 Cycle   8  Pass 1  IDiag  1:
 E= -232.248052275214     Delta-E=       -0.000000000788 Rises=F Damp=F
 DIIS: error= 1.75D-06 at cycle   3 NSaved=   3.
 NSaved= 3 IEnMin= 3 EnMin= -232.248052275214     IErMin= 3 ErrMin= 1.75D-06
 ErrMax= 1.75D-06  0.00D+00 EMaxC= 1.00D-01 BMatC= 1.74D-10 BMatP= 7.75D-10
 IDIUse=1 WtCom= 1.00D+00 WtEn= 0.00D+00
 Coeff-Com: -0.138D-01 0.332D+00 0.681D+00
 Coeff:     -0.138D-01 0.332D+00 0.681D+00
 Gap=     0.251 Goal=   None    Shift=    0.000
 RMSDP=1.81D-07 MaxDP=1.36D-06 DE=-7.88D-10 OVMax= 3.20D-06

 Cycle   9  Pass 1  IDiag  1:
 E= -232.248052275356     Delta-E=       -0.000000000142 Rises=F Damp=F
 DIIS: error= 4.03D-07 at cycle   4 NSaved=   4.
 NSaved= 4 IEnMin= 4 EnMin= -232.248052275356     IErMin= 4 ErrMin= 4.03D-07
 ErrMax= 4.03D-07  0.00D+00 EMaxC= 1.00D-01 BMatC= 1.32D-11 BMatP= 1.74D-10
 IDIUse=1 WtCom= 1.00D+00 WtEn= 0.00D+00
 Coeff-Com: -0.432D-02 0.873D-01 0.256D+00 0.661D+00
 Coeff:     -0.432D-02 0.873D-01 0.256D+00 0.661D+00
 Gap=     0.251 Goal=   None    Shift=    0.000
 RMSDP=4.73D-08 MaxDP=5.88D-07 DE=-1.42D-10 OVMax= 1.06D-06

 Cycle  10  Pass 1  IDiag  1:
 E= -232.248052275380     Delta-E=       -0.000000000024 Rises=F Damp=F
 DIIS: error= 8.34D-08 at cycle   5 NSaved=   5.
 NSaved= 5 IEnMin= 5 EnMin= -232.248052275380     IErMin= 5 ErrMin= 8.34D-08
 ErrMax= 8.34D-08  0.00D+00 EMaxC= 1.00D-01 BMatC= 9.16D-13 BMatP= 1.32D-11
 IDIUse=1 WtCom= 1.00D+00 WtEn= 0.00D+00
 Coeff-Com: -0.316D-03 0.274D-02 0.233D-01 0.237D+00 0.737D+00
 Coeff:     -0.316D-03 0.274D-02 0.233D-01 0.237D+00 0.737D+00
 Gap=     0.251 Goal=   None    Shift=    0.000
 RMSDP=1.21D-08 MaxDP=1.59D-07 DE=-2.39D-11 OVMax= 2.15D-07

 Cycle  11  Pass 1  IDiag  1:
 E= -232.248052275379     Delta-E=        0.000000000000 Rises=F Damp=F
 DIIS: error= 3.95D-09 at cycle   6 NSaved=   6.
 NSaved= 6 IEnMin= 5 EnMin= -232.248052275380     IErMin= 6 ErrMin= 3.95D-09
 ErrMax= 3.95D-09  0.00D+00 EMaxC= 1.00D-01 BMatC= 1.09D-15 BMatP= 9.16D-13
 IDIUse=1 WtCom= 1.00D+00 WtEn= 0.00D+00
 Coeff-Com:  0.312D-04-0.715D-03-0.254D-02-0.614D-02 0.223D-01 0.987D+00
 Coeff:      0.312D-04-0.715D-03-0.254D-02-0.614D-02 0.223D-01 0.987D+00
 Gap=     0.251 Goal=   None    Shift=    0.000
 RMSDP=4.26D-10 MaxDP=7.10D-09 DE= 2.84D-13 OVMax= 1.11D-08

 SCF Done:  E(RB3LYP) =  -232.248052275     A.U. after   11 cycles
            NFock= 11  Conv=0.43D-09     -V/T= 2.0104
 KE= 2.298482596168D+02 PE=-9.433420765387D+02 EE= 2.782104649975D+02
 Leave Link  502 at Sun Feb 21 10:57:36 2016, MaxMem=  536870912 cpu:     289.3
 (Enter /home/software/gaussian/gdvH23/gdv/l601.exe)
 Copying SCF densities to generalized density rwf, IOpCl= 0 IROHF=0.

 **********************************************************************

            Population analysis using the SCF density.

 **********************************************************************

 Orbital symmetries:
       Occupied  (A1G) (E1U) (E1U) (E2G) (E2G) (B1U) (A1G) (E1U)
                 (E1U) (E2G) (E2G) (A1G) (B1U) (B2U) (E1U) (E1U)
                 (A2U) (E2G) (E2G) (E1G) (E1G)
       Virtual   (E2U) (E2U) (A1G) (E1U) (E1U) (B2G) (E2G) (E2G)
                 (B1U) (E2G) (E2G) (E1U) (E1U) (B2U) (A2U) (B1U)
                 (A1G) (A2G) (A1G) (E1G) (E1G) (E2G) (E2G) (E1U)
                 (E1U) (E2U) (E2U) (B2G) (E2G) (E2G) (B1U) (E1U)
                 (E1U) (A1G) (E1U) (E1U) (A2G) (E2G) (E2G) (E1U)
                 (E1U) (B1U) (B1G) (A2U) (E2G) (E2G) (E2U) (E2U)
                 (E1G) (E1G) (A1G) (B2U) (A1G) (B1U) (E1U) (E1U)
                 (E2G) (E2G) (E2U) (E2U) (E1U) (E1U) (E1G) (E1G)
                 (B2G) (E2G) (E2G) (A1U) (E2G) (E2G) (E1U) (E1U)
                 (B1U) (A2G) (B1U) (A1G) (E1U) (E1U) (E2G) (E2G)
                 (B1U)
 The electronic state is 1-A1G.
 Alpha  occ. eigenvalues --  -10.18915 -10.18888 -10.18888 -10.18832 -10.18832
 Alpha  occ. eigenvalues --  -10.18805  -0.84735  -0.73964  -0.73964  -0.59619
 Alpha  occ. eigenvalues --   -0.59619  -0.51676  -0.45547  -0.43910  -0.41601
 Alpha  occ. eigenvalues --   -0.41601  -0.36044  -0.33934  -0.33934  -0.24694
 Alpha  occ. eigenvalues --   -0.24694
 Alpha virt. eigenvalues --    0.00369   0.00369   0.08622   0.14104   0.14104
 Alpha virt. eigenvalues --    0.16462   0.17979   0.17979   0.18668   0.30212
 Alpha virt. eigenvalues --    0.30212   0.32020   0.32020   0.47413   0.52659
 Alpha virt. eigenvalues --    0.54914   0.55107   0.56545   0.59314   0.60129
 Alpha virt. eigenvalues --    0.60129   0.60194   0.60194   0.62585   0.62585
 Alpha virt. eigenvalues --    0.66710   0.66710   0.74449   0.83121   0.83121
 Alpha virt. eigenvalues --    0.83651   0.85651   0.85651   0.93202   0.93978
 Alpha virt. eigenvalues --    0.93978   0.95804   1.08480   1.08480   1.14335
 Alpha virt. eigenvalues --    1.14335   1.20036   1.26129   1.39622   1.43086
 Alpha virt. eigenvalues --    1.43086   1.48734   1.48734   1.51620   1.51620
 Alpha virt. eigenvalues --    1.75301   1.79148   1.84551   1.88960   1.95947
 Alpha virt. eigenvalues --    1.95947   2.06719   2.06719   2.15318   2.15318
 Alpha virt. eigenvalues --    2.15615   2.15615   2.31070   2.31070   2.32447
 Alpha virt. eigenvalues --    2.54138   2.54138   2.65975   2.70187   2.70187
 Alpha virt. eigenvalues --    2.72427   2.72427   2.75517   3.01965   3.40543
 Alpha virt. eigenvalues --    4.08376   4.11533   4.11533   4.32797   4.32797
 Alpha virt. eigenvalues --    4.66421
          Condensed to atoms (all electrons):
              1          2          3          4          5          6
     1  C    4.848486   0.552475  -0.032900  -0.040755  -0.032900   0.552475
     2  C    0.552475   4.848486   0.552475  -0.032900  -0.040755  -0.032900
     3  C   -0.032900   0.552475   4.848486   0.552475  -0.032900  -0.040755
     4  C   -0.040755  -0.032900   0.552475   4.848486   0.552475  -0.032900
     5  C   -0.032900  -0.040755  -0.032900   0.552475   4.848486   0.552475
     6  C    0.552475  -0.032900  -0.040755  -0.032900   0.552475   4.848486
     7  H    0.357422  -0.042772   0.004654   0.000570   0.004654  -0.042772
     8  H   -0.042772   0.357422  -0.042772   0.004654   0.000570   0.004654
     9  H    0.004654  -0.042772   0.357422  -0.042772   0.004654   0.000570
    10  H    0.000570   0.004654  -0.042772   0.357422  -0.042772   0.004654
    11  H    0.004654   0.000570   0.004654  -0.042772   0.357422  -0.042772
    12  H   -0.042772   0.004654   0.000570   0.004654  -0.042772   0.357422
              7          8          9         10         11         12
     1  C    0.357422  -0.042772   0.004654   0.000570   0.004654  -0.042772
     2  C   -0.042772   0.357422  -0.042772   0.004654   0.000570   0.004654
     3  C    0.004654  -0.042772   0.357422  -0.042772   0.004654   0.000570
     4  C    0.000570   0.004654  -0.042772   0.357422  -0.042772   0.004654
     5  C    0.004654   0.000570   0.004654  -0.042772   0.357422  -0.042772
     6  C   -0.042772   0.004654   0.000570   0.004654  -0.042772   0.357422
     7  H    0.601431  -0.005745  -0.000174   0.000015  -0.000174  -0.005745
     8  H   -0.005745   0.601431  -0.005745  -0.000174   0.000015  -0.000174
     9  H   -0.000174  -0.005745   0.601431  -0.005745  -0.000174   0.000015
    10  H    0.000015  -0.000174  -0.005745   0.601431  -0.005745  -0.000174
    11  H   -0.000174   0.000015  -0.000174  -0.005745   0.601431  -0.005745
    12  H   -0.005745  -0.000174   0.000015  -0.000174  -0.005745   0.601431
 Mulliken charges:
              1
     1  C   -0.128637
     2  C   -0.128637
     3  C   -0.128637
     4  C   -0.128637
     5  C   -0.128637
     6  C   -0.128637
     7  H    0.128637
     8  H    0.128637
     9  H    0.128637
    10  H    0.128637
    11  H    0.128637
    12  H    0.128637
 Sum of Mulliken charges =   0.00000
 Mulliken charges with hydrogens summed into heavy atoms:
              1
     1  C    0.000000
     2  C    0.000000
     3  C    0.000000
     4  C    0.000000
     5  C    0.000000
     6  C    0.000000
 Sum of Mulliken charges with hydrogens summed into heavy atoms =   0.00000
 Electronic spatial extent (au):  <R**2>=            459.0386
 Charge=              0.0000 electrons
 Dipole moment (field-independent basis, Debye):
    X=              0.0000    Y=              0.0000    Z=              0.0000  Tot=              0.0000
 Quadrupole moment (field-independent basis, Debye-Ang):
   XX=            -31.4638   YY=            -31.4638   ZZ=            -38.6590
   XY=              0.0000   XZ=              0.0000   YZ=              0.0000
 Traceless Quadrupole moment (field-independent basis, Debye-Ang):
   XX=              2.3984   YY=              2.3984   ZZ=             -4.7968
   XY=              0.0000   XZ=              0.0000   YZ=              0.0000
 Octapole moment (field-independent basis, Debye-Ang**2):
  XXX=              0.0000  YYY=              0.0000  ZZZ=              0.0000  XYY=              0.0000
  XXY=              0.0000  XXZ=              0.0000  XZZ=              0.0000  YZZ=              0.0000
  YYZ=              0.0000  XYZ=              0.0000
 Hexadecapole moment (field-independent basis, Debye-Ang**3):
 XXXX=           -271.0959 YYYY=           -271.0959 ZZZZ=            -40.1134 XXXY=              0.0000
 XXXZ=              0.0000 YYYX=              0.0000 YYYZ=              0.0000 ZZZX=              0.0000
 ZZZY=              0.0000 XXYY=            -90.3653 XXZZ=            -60.6682 YYZZ=            -60.6682
 XXYZ=              0.0000 YYXZ=              0.0000 ZZXY=              0.0000
 N-N= 2.030352996490D+02 E-N=-9.433420770510D+02  KE= 2.298482596168D+02
 Symmetry AG   KE= 7.404141050518D+01
 Symmetry B1G  KE= 3.745780605819D+01
 Symmetry B2G  KE= 2.239643672614D+00
 Symmetry B3G  KE= 2.239643672614D+00
 Symmetry AU   KE=-4.211446257592D-16
 Symmetry B1U  KE= 1.867471141455D+00
 Symmetry B2U  KE= 7.173563781617D+01
 Symmetry B3U  KE= 4.026664675062D+01
 No NMR shielding tensors so no spin-rotation constants.
 Leave Link  601 at Sun Feb 21 10:57:37 2016, MaxMem=  536870912 cpu:       4.2
 (Enter /home/software/gaussian/gdvH23/gdv/l9999.exe)
 Unable to Open any file for archive entry.
 1\1\GINC-ECUBA\SP\RB3LYP\6-31G(d)\C6H6\DPADULA\21-Feb-2016\0\\#p b3lyp
  6-31g(d)\\Title Card Required\\0,1\C,0,1.20809735,0.69749533,0.\C,0,0
 .,1.39499067,0.\C,0,-1.20809735,0.69749533,0.\C,0,-1.20809735,-0.69749
 533,0.\C,0,0.,-1.39499067,0.\C,0,1.20809735,-0.69749533,0.\H,0,2.16038
 781,1.24730049,0.\H,0,0.,2.49460097,0.\H,0,-2.16038781,1.24730049,0.\H
 ,0,-2.16038781,-1.24730049,0.\H,0,0.,-2.49460097,0.\H,0,2.16038781,-1.
 24730049,0.\\Version=ES64L-GDVRevH.23\State=1-A1G\HF=-232.2480523\RMSD
 =4.262e-10\Dipole=0.,0.,0.\Quadrupole=1.783151,1.783151,-3.5663019,0.,
 0.,0.\PG=D06H [3C2'(H1C1.C1H1)]\\@
 The archive entry for this job was punched.


 AS FAR AS THE LAWS OF MATHEMATICS REFER TO REALITY,
 THEY ARE NOT CERTAIN; AND AS FAR AS THEY ARE CERTAIN,
 THEY DO NOT REFER TO REALITY.

                                         -- ALBERT EINSTEIN
 Job cpu time:  0 days  0 hours  5 minutes 41.9 seconds.
 File lengths (MBytes):  RWF=      6 Int=      0 D2E=      0 Chk=      1 Scr=      1
 Normal termination of Gaussian DV at Sun Feb 21 10:57:37 2016.
