Title Card Required                                                     
SP        RB3LYP TD-FC                                                6-31G(d)            
Number of atoms                            I               12
Info1-9                                    I   N=           9
          21          21           0           0           0         111
           1         218        -501
Charge                                     I                0
Multiplicity                               I                1
Number of electrons                        I               42
Number of alpha electrons                  I               21
Number of beta electrons                   I               21
Number of basis functions                  I              102
Number of independent functions            I              102
Number of point charges in /Mol/           I                0
Number of translation vectors              I                0
Atomic numbers                             I   N=          12
           6           6           6           6           6           6
           1           1           1           1           1           1
Nuclear charges                            R   N=          12
  6.00000000E+00  6.00000000E+00  6.00000000E+00  6.00000000E+00  6.00000000E+00
  6.00000000E+00  1.00000000E+00  1.00000000E+00  1.00000000E+00  1.00000000E+00
  1.00000000E+00  1.00000000E+00
Current cartesian coordinates              R   N=          36
  0.00000000E+00  2.63615094E+00  0.00000000E+00  2.28297246E+00  1.31807452E+00
  0.00000000E+00  2.28297246E+00 -1.31807452E+00  0.00000000E+00  0.00000000E+00
 -2.63615094E+00  0.00000000E+00 -2.28297246E+00 -1.31807452E+00  0.00000000E+00
 -2.28297246E+00  1.31807452E+00  0.00000000E+00  0.00000000E+00  4.71411268E+00
  0.00000000E+00  4.08254164E+00  2.35705540E+00  0.00000000E+00  4.08254164E+00
 -2.35705540E+00  0.00000000E+00  0.00000000E+00 -4.71411268E+00  0.00000000E+00
 -4.08254164E+00 -2.35705540E+00  0.00000000E+00 -4.08254164E+00  2.35705540E+00
  0.00000000E+00
Force Field                                I                0
Int Atom Types                             I   N=          12
           0           0           0           0           0           0
           0           0           0           0           0           0
MM charges                                 R   N=          12
  0.00000000E+00  0.00000000E+00  0.00000000E+00  0.00000000E+00  0.00000000E+00
  0.00000000E+00  0.00000000E+00  0.00000000E+00  0.00000000E+00  0.00000000E+00
  0.00000000E+00  0.00000000E+00
Integer atomic weights                     I   N=          12
          12          12          12          12          12          12
           1           1           1           1           1           1
Real atomic weights                        R   N=          12
  1.20000000E+01  1.20000000E+01  1.20000000E+01  1.20000000E+01  1.20000000E+01
  1.20000000E+01  1.00782504E+00  1.00782504E+00  1.00782504E+00  1.00782504E+00
  1.00782504E+00  1.00782504E+00
Atom fragment info                         I   N=          12
           0           0           0           0           0           0
           0           0           0           0           0           0
Atom residue num                           I   N=          12
           0           0           0           0           0           0
           0           0           0           0           0           0
Nuclear spins                              I   N=          12
           0           0           0           0           0           0
           1           1           1           1           1           1
Nuclear ZEff                               R   N=          12
 -3.60000000E+00 -3.60000000E+00 -3.60000000E+00 -3.60000000E+00 -3.60000000E+00
 -3.60000000E+00 -1.00000000E+00 -1.00000000E+00 -1.00000000E+00 -1.00000000E+00
 -1.00000000E+00 -1.00000000E+00
Nuclear ZNuc                               R   N=          12
  6.00000000E+00  6.00000000E+00  6.00000000E+00  6.00000000E+00  6.00000000E+00
  6.00000000E+00  1.00000000E+00  1.00000000E+00  1.00000000E+00  1.00000000E+00
  1.00000000E+00  1.00000000E+00
Nuclear QMom                               R   N=          12
  0.00000000E+00  0.00000000E+00  0.00000000E+00  0.00000000E+00  0.00000000E+00
  0.00000000E+00  0.00000000E+00  0.00000000E+00  0.00000000E+00  0.00000000E+00
  0.00000000E+00  0.00000000E+00
Nuclear GFac                               R   N=          12
  0.00000000E+00  0.00000000E+00  0.00000000E+00  0.00000000E+00  0.00000000E+00
  0.00000000E+00  2.79284600E+00  2.79284600E+00  2.79284600E+00  2.79284600E+00
  2.79284600E+00  2.79284600E+00
MicOpt                                     I   N=          12
          -1          -1          -1          -1          -1          -1
          -1          -1          -1          -1          -1          -1
Number of contracted shells                I               36
Number of primitive shells                 I               90
Pure/Cartesian d shells                    I                1
Pure/Cartesian f shells                    I                0
Highest angular momentum                   I                2
Largest degree of contraction              I                6
Shell types                                I   N=          36
           0          -1          -1           2           0          -1
          -1           2           0          -1          -1           2
           0          -1          -1           2           0          -1
          -1           2           0          -1          -1           2
           0           0           0           0           0           0
           0           0           0           0           0           0
Number of primitives per shell             I   N=          36
           6           3           1           1           6           3
           1           1           6           3           1           1
           6           3           1           1           6           3
           1           1           6           3           1           1
           3           1           3           1           3           1
           3           1           3           1           3           1
Shell to atom map                          I   N=          36
           1           1           1           1           2           2
           2           2           3           3           3           3
           4           4           4           4           5           5
           5           5           6           6           6           6
           7           7           8           8           9           9
          10          10          11          11          12          12
Primitive exponents                        R   N=          90
  3.04752488E+03  4.57369518E+02  1.03948685E+02  2.92101553E+01  9.28666296E+00
  3.16392696E+00  7.86827235E+00  1.88128854E+00  5.44249258E-01  1.68714478E-01
  8.00000000E-01  3.04752488E+03  4.57369518E+02  1.03948685E+02  2.92101553E+01
  9.28666296E+00  3.16392696E+00  7.86827235E+00  1.88128854E+00  5.44249258E-01
  1.68714478E-01  8.00000000E-01  3.04752488E+03  4.57369518E+02  1.03948685E+02
  2.92101553E+01  9.28666296E+00  3.16392696E+00  7.86827235E+00  1.88128854E+00
  5.44249258E-01  1.68714478E-01  8.00000000E-01  3.04752488E+03  4.57369518E+02
  1.03948685E+02  2.92101553E+01  9.28666296E+00  3.16392696E+00  7.86827235E+00
  1.88128854E+00  5.44249258E-01  1.68714478E-01  8.00000000E-01  3.04752488E+03
  4.57369518E+02  1.03948685E+02  2.92101553E+01  9.28666296E+00  3.16392696E+00
  7.86827235E+00  1.88128854E+00  5.44249258E-01  1.68714478E-01  8.00000000E-01
  3.04752488E+03  4.57369518E+02  1.03948685E+02  2.92101553E+01  9.28666296E+00
  3.16392696E+00  7.86827235E+00  1.88128854E+00  5.44249258E-01  1.68714478E-01
  8.00000000E-01  1.87311370E+01  2.82539436E+00  6.40121692E-01  1.61277759E-01
  1.87311370E+01  2.82539436E+00  6.40121692E-01  1.61277759E-01  1.87311370E+01
  2.82539436E+00  6.40121692E-01  1.61277759E-01  1.87311370E+01  2.82539436E+00
  6.40121692E-01  1.61277759E-01  1.87311370E+01  2.82539436E+00  6.40121692E-01
  1.61277759E-01  1.87311370E+01  2.82539436E+00  6.40121692E-01  1.61277759E-01
Contraction coefficients                   R   N=          90
  1.83473713E-03  1.40373228E-02  6.88426223E-02  2.32184443E-01  4.67941348E-01
  3.62311985E-01 -1.19332420E-01 -1.60854152E-01  1.14345644E+00  1.00000000E+00
  1.00000000E+00  1.83473713E-03  1.40373228E-02  6.88426223E-02  2.32184443E-01
  4.67941348E-01  3.62311985E-01 -1.19332420E-01 -1.60854152E-01  1.14345644E+00
  1.00000000E+00  1.00000000E+00  1.83473713E-03  1.40373228E-02  6.88426223E-02
  2.32184443E-01  4.67941348E-01  3.62311985E-01 -1.19332420E-01 -1.60854152E-01
  1.14345644E+00  1.00000000E+00  1.00000000E+00  1.83473713E-03  1.40373228E-02
  6.88426223E-02  2.32184443E-01  4.67941348E-01  3.62311985E-01 -1.19332420E-01
 -1.60854152E-01  1.14345644E+00  1.00000000E+00  1.00000000E+00  1.83473713E-03
  1.40373228E-02  6.88426223E-02  2.32184443E-01  4.67941348E-01  3.62311985E-01
 -1.19332420E-01 -1.60854152E-01  1.14345644E+00  1.00000000E+00  1.00000000E+00
  1.83473713E-03  1.40373228E-02  6.88426223E-02  2.32184443E-01  4.67941348E-01
  3.62311985E-01 -1.19332420E-01 -1.60854152E-01  1.14345644E+00  1.00000000E+00
  1.00000000E+00  3.34946043E-02  2.34726953E-01  8.13757326E-01  1.00000000E+00
  3.34946043E-02  2.34726953E-01  8.13757326E-01  1.00000000E+00  3.34946043E-02
  2.34726953E-01  8.13757326E-01  1.00000000E+00  3.34946043E-02  2.34726953E-01
  8.13757326E-01  1.00000000E+00  3.34946043E-02  2.34726953E-01  8.13757326E-01
  1.00000000E+00  3.34946043E-02  2.34726953E-01  8.13757326E-01  1.00000000E+00
P(S=P) Contraction coefficients            R   N=          90
  0.00000000E+00  0.00000000E+00  0.00000000E+00  0.00000000E+00  0.00000000E+00
  0.00000000E+00  6.89990666E-02  3.16423961E-01  7.44308291E-01  1.00000000E+00
  0.00000000E+00  0.00000000E+00  0.00000000E+00  0.00000000E+00  0.00000000E+00
  0.00000000E+00  0.00000000E+00  6.89990666E-02  3.16423961E-01  7.44308291E-01
  1.00000000E+00  0.00000000E+00  0.00000000E+00  0.00000000E+00  0.00000000E+00
  0.00000000E+00  0.00000000E+00  0.00000000E+00  6.89990666E-02  3.16423961E-01
  7.44308291E-01  1.00000000E+00  0.00000000E+00  0.00000000E+00  0.00000000E+00
  0.00000000E+00  0.00000000E+00  0.00000000E+00  0.00000000E+00  6.89990666E-02
  3.16423961E-01  7.44308291E-01  1.00000000E+00  0.00000000E+00  0.00000000E+00
  0.00000000E+00  0.00000000E+00  0.00000000E+00  0.00000000E+00  0.00000000E+00
  6.89990666E-02  3.16423961E-01  7.44308291E-01  1.00000000E+00  0.00000000E+00
  0.00000000E+00  0.00000000E+00  0.00000000E+00  0.00000000E+00  0.00000000E+00
  0.00000000E+00  6.89990666E-02  3.16423961E-01  7.44308291E-01  1.00000000E+00
  0.00000000E+00  0.00000000E+00  0.00000000E+00  0.00000000E+00  0.00000000E+00
  0.00000000E+00  0.00000000E+00  0.00000000E+00  0.00000000E+00  0.00000000E+00
  0.00000000E+00  0.00000000E+00  0.00000000E+00  0.00000000E+00  0.00000000E+00
  0.00000000E+00  0.00000000E+00  0.00000000E+00  0.00000000E+00  0.00000000E+00
  0.00000000E+00  0.00000000E+00  0.00000000E+00  0.00000000E+00  0.00000000E+00
Coordinates of each shell                  R   N=         108
  0.00000000E+00  2.63615094E+00  0.00000000E+00  0.00000000E+00  2.63615094E+00
  0.00000000E+00  0.00000000E+00  2.63615094E+00  0.00000000E+00  0.00000000E+00
  2.63615094E+00  0.00000000E+00  2.28297246E+00  1.31807452E+00  0.00000000E+00
  2.28297246E+00  1.31807452E+00  0.00000000E+00  2.28297246E+00  1.31807452E+00
  0.00000000E+00  2.28297246E+00  1.31807452E+00  0.00000000E+00  2.28297246E+00
 -1.31807452E+00  0.00000000E+00  2.28297246E+00 -1.31807452E+00  0.00000000E+00
  2.28297246E+00 -1.31807452E+00  0.00000000E+00  2.28297246E+00 -1.31807452E+00
  0.00000000E+00  0.00000000E+00 -2.63615094E+00  0.00000000E+00  0.00000000E+00
 -2.63615094E+00  0.00000000E+00  0.00000000E+00 -2.63615094E+00  0.00000000E+00
  0.00000000E+00 -2.63615094E+00  0.00000000E+00 -2.28297246E+00 -1.31807452E+00
  0.00000000E+00 -2.28297246E+00 -1.31807452E+00  0.00000000E+00 -2.28297246E+00
 -1.31807452E+00  0.00000000E+00 -2.28297246E+00 -1.31807452E+00  0.00000000E+00
 -2.28297246E+00  1.31807452E+00  0.00000000E+00 -2.28297246E+00  1.31807452E+00
  0.00000000E+00 -2.28297246E+00  1.31807452E+00  0.00000000E+00 -2.28297246E+00
  1.31807452E+00  0.00000000E+00  0.00000000E+00  4.71411268E+00  0.00000000E+00
  0.00000000E+00  4.71411268E+00  0.00000000E+00  4.08254164E+00  2.35705540E+00
  0.00000000E+00  4.08254164E+00  2.35705540E+00  0.00000000E+00  4.08254164E+00
 -2.35705540E+00  0.00000000E+00  4.08254164E+00 -2.35705540E+00  0.00000000E+00
  0.00000000E+00 -4.71411268E+00  0.00000000E+00  0.00000000E+00 -4.71411268E+00
  0.00000000E+00 -4.08254164E+00 -2.35705540E+00  0.00000000E+00 -4.08254164E+00
 -2.35705540E+00  0.00000000E+00 -4.08254164E+00  2.35705540E+00  0.00000000E+00
 -4.08254164E+00  2.35705540E+00  0.00000000E+00
Constraint Structure                       R   N=          36
  0.00000000E+00  2.63615094E+00  0.00000000E+00  2.28297246E+00  1.31807452E+00
  0.00000000E+00  2.28297246E+00 -1.31807452E+00  0.00000000E+00  0.00000000E+00
 -2.63615094E+00  0.00000000E+00 -2.28297246E+00 -1.31807452E+00  0.00000000E+00
 -2.28297246E+00  1.31807452E+00  0.00000000E+00  0.00000000E+00  4.71411268E+00
  0.00000000E+00  4.08254164E+00  2.35705540E+00  0.00000000E+00  4.08254164E+00
 -2.35705540E+00  0.00000000E+00  0.00000000E+00 -4.71411268E+00  0.00000000E+00
 -4.08254164E+00 -2.35705540E+00  0.00000000E+00 -4.08254164E+00  2.35705540E+00
  0.00000000E+00
Num ILSW                                   I              100
ILSW                                       I   N=         100
           0           1           0           0           2           0
           0           0           0           0         402          -1
           0           0           0           0           0           0
           0           0           0           0           0           0
           1           1           0           0           0           0
           0           0      100000           0          -1           0
           0           0           0           0           0           0
           0           0           0           1           0           0
           0           0           1           0           0           0
           0           0           4          41           0           0
           0           0           5           0           0           0
           0           0           0           0           0           0
           0           0           0           0           0           0
           0           0           0           0           0           0
           0           0           0           0           0           0
           0           0           0           0           0           0
           0           0           0           0
Num RLSW                                   I               41
RLSW                                       R   N=          41
  8.00000000E-01  7.20000000E-01  1.00000000E+00  8.10000000E-01  2.00000000E-01
  0.00000000E+00  0.00000000E+00  1.00000000E+00  0.00000000E+00  0.00000000E+00
  0.00000000E+00  0.00000000E+00  1.00000000E+00  0.00000000E+00  0.00000000E+00
  0.00000000E+00  0.00000000E+00  1.00000000E+00  0.00000000E+00  0.00000000E+00
  0.00000000E+00  0.00000000E+00  1.00000000E+00  0.00000000E+00  0.00000000E+00
  0.00000000E+00  0.00000000E+00  1.00000000E+00  0.00000000E+00  0.00000000E+00
  0.00000000E+00  0.00000000E+00  1.00000000E+00  0.00000000E+00  0.00000000E+00
  0.00000000E+00  0.00000000E+00  0.00000000E+00  1.00000000E+00  1.00000000E+00
  0.00000000E+00
MxBond                                     I                3
NBond                                      I   N=          12
           3           3           3           3           3           3
           1           1           1           1           1           1
IBond                                      I   N=          36
           2           6           7           1           3           8
           2           4           9           3           5          10
           4           6          11           1           5          12
           1           0           0           2           0           0
           3           0           0           4           0           0
           5           0           0           6           0           0
RBond                                      R   N=          36
  1.50000000E+00  1.50000000E+00  1.00000000E+00  1.50000000E+00  1.50000000E+00
  1.00000000E+00  1.50000000E+00  1.50000000E+00  1.00000000E+00  1.50000000E+00
  1.50000000E+00  1.00000000E+00  1.50000000E+00  1.50000000E+00  1.00000000E+00
  1.50000000E+00  1.50000000E+00  1.00000000E+00  1.00000000E+00  0.00000000E+00
  0.00000000E+00  1.00000000E+00  0.00000000E+00  0.00000000E+00  1.00000000E+00
  0.00000000E+00  0.00000000E+00  1.00000000E+00  0.00000000E+00  0.00000000E+00
  1.00000000E+00  0.00000000E+00  0.00000000E+00  1.00000000E+00  0.00000000E+00
  0.00000000E+00
Virial Ratio                               R      2.010440739722903E+00
SCF Energy                                 R     -2.322480501840600E+02
CIS Energy                                 R     -2.320436520882278E+02
Total Energy                               R     -2.320436520882278E+02
Post-SCF wavefunction norm                 R      1.000000000000000E+00
RMS Density                                R      4.220133438553047E-09
External E-field                           R   N=          35
  0.00000000E+00  0.00000000E+00  0.00000000E+00  0.00000000E+00  0.00000000E+00
  0.00000000E+00  0.00000000E+00  0.00000000E+00  0.00000000E+00  0.00000000E+00
  0.00000000E+00  0.00000000E+00  0.00000000E+00  0.00000000E+00  0.00000000E+00
  0.00000000E+00  0.00000000E+00  0.00000000E+00  0.00000000E+00  0.00000000E+00
  0.00000000E+00  0.00000000E+00  0.00000000E+00  0.00000000E+00  0.00000000E+00
  0.00000000E+00  0.00000000E+00  0.00000000E+00  0.00000000E+00  0.00000000E+00
  0.00000000E+00  0.00000000E+00  0.00000000E+00  0.00000000E+00  0.00000000E+00
IOpCl                                      I                0
IROHF                                      I                0
Alpha Orbital Energies                     R   N=         102
 -1.01891489E+01 -1.01888817E+01 -1.01888806E+01 -1.01883234E+01 -1.01883222E+01
 -1.01880544E+01 -8.47352697E-01 -7.39638004E-01 -7.39637985E-01 -5.96189015E-01
 -5.96188346E-01 -5.16759458E-01 -4.55466605E-01 -4.39096306E-01 -4.16014378E-01
 -4.16013934E-01 -3.60441451E-01 -3.39343017E-01 -3.39341802E-01 -2.46939293E-01
 -2.46936011E-01  3.68982595E-03  3.69132921E-03  8.62217388E-02  1.41036403E-01
  1.41038191E-01  1.64617474E-01  1.79786566E-01  1.79788723E-01  1.86682243E-01
  3.02122089E-01  3.02123605E-01  3.20198349E-01  3.20202076E-01  4.74131876E-01
  5.26605534E-01  5.49145282E-01  5.51085097E-01  5.65447915E-01  5.93139347E-01
  6.01269670E-01  6.01300573E-01  6.01936076E-01  6.01937998E-01  6.25848568E-01
  6.25850867E-01  6.67089028E-01  6.67095339E-01  7.44492507E-01  8.31204302E-01
  8.31209429E-01  8.36511876E-01  8.56504783E-01  8.56505320E-01  9.32030556E-01
  9.39778371E-01  9.39778810E-01  9.58044397E-01  1.08479905E+00  1.08480913E+00
  1.14333631E+00  1.14334306E+00  1.20036035E+00  1.26129104E+00  1.39621871E+00
  1.43085494E+00  1.43087938E+00  1.48734125E+00  1.48734221E+00  1.51620416E+00
  1.51620419E+00  1.75301211E+00  1.79148190E+00  1.84551678E+00  1.88961094E+00
  1.95947362E+00  1.95947652E+00  2.06718579E+00  2.06718685E+00  2.15318148E+00
  2.15318196E+00  2.15614255E+00  2.15614816E+00  2.31070301E+00  2.31070367E+00
  2.32447089E+00  2.54138123E+00  2.54138171E+00  2.65974637E+00  2.70187324E+00
  2.70187574E+00  2.72426839E+00  2.72426940E+00  2.75517485E+00  3.01965357E+00
  3.40543418E+00  4.08375670E+00  4.11532238E+00  4.11532435E+00  4.32796591E+00
  4.32796676E+00  4.66421375E+00
Alpha MO coefficients                      R   N=       10404
  4.05685358E-01  1.97664747E-02  8.63832038E-14  1.18444624E-04  3.84316581E-16
 -2.54507808E-03 -4.54057775E-13 -3.48245147E-04  6.52459688E-16 -4.02779602E-03
 -3.94365375E-03 -4.06705658E-03 -9.13198949E-15 -1.54533994E-16  6.01000245E-16
  4.04856651E-01  1.97247670E-02  1.03018875E-04  5.92430592E-05 -1.61621964E-17
 -2.52842823E-03 -3.05231936E-04 -1.74808748E-04 -3.39655318E-16 -3.95725169E-03
 -3.99934322E-03 -4.05920284E-03  4.22968995E-05 -1.12031117E-16 -5.02649423E-16
  4.04856651E-01  1.97247670E-02  1.03018875E-04 -5.92430592E-05 -4.14567377E-16
 -2.52842822E-03 -3.05231936E-04  1.74808748E-04  7.97980382E-17 -3.95725169E-03
 -3.99934322E-03 -4.05920284E-03 -4.22968995E-05 -1.64217087E-16  4.19687149E-17
  4.05685358E-01  1.97664747E-02  9.65164227E-14 -1.18444624E-04  7.83515642E-16
 -2.54507808E-03 -4.92309349E-13  3.48245147E-04  1.85036034E-16 -4.02779602E-03
 -3.94365375E-03 -4.06705658E-03  1.50555113E-14 -2.01432113E-16 -4.85006571E-16
  4.04856652E-01  1.97247670E-02 -1.03018875E-04 -5.92430593E-05 -3.18797967E-16
 -2.52842823E-03  3.05231936E-04  1.74808749E-04  2.74972907E-16 -3.95725169E-03
 -3.99934322E-03 -4.05920284E-03  4.22968995E-05 -2.63710992E-16  7.49008357E-16
  4.04856652E-01  1.97247670E-02 -1.03018875E-04  5.92430593E-05 -2.97091628E-16
 -2.52842823E-03  3.05231936E-04 -1.74808749E-04 -7.49241757E-16 -3.95725169E-03
 -3.99934322E-03 -4.05920284E-03 -4.22968995E-05  4.81365091E-16  7.27485107E-17
 -1.87097050E-04  8.87471649E-04 -1.86797807E-04  8.86538159E-04 -1.86797807E-04
  8.86538159E-04 -1.87097049E-04  8.87471649E-04 -1.86797807E-04  8.86538159E-04
 -1.86797807E-04  8.86538160E-04  5.73470440E-01  2.84249427E-02  1.32223081E-12
 -4.96205305E-05  2.37796085E-17 -5.87463025E-03 -6.87443129E-12  3.89667077E-04
 -1.04089004E-16 -5.54706330E-03 -5.52973131E-03 -5.57482105E-03 -1.91405891E-13
  1.04327258E-16  5.98409783E-16  2.86148978E-01  1.41820680E-02  1.09229085E-04
 -2.37993414E-04  1.17382588E-16 -2.90784909E-03 -5.14821415E-04  1.25700480E-03
  9.80955960E-17 -2.78902286E-03 -2.73947651E-03 -2.78216974E-03  2.24950376E-05
 -2.06770813E-16  1.64767179E-16 -2.86148983E-01 -1.41820682E-02 -1.09229085E-04
 -2.37993413E-04 -6.07335274E-17  2.90784914E-03  5.14821409E-04  1.25700480E-03
 -5.33589992E-18  2.78902291E-03  2.73947656E-03  2.78216978E-03  2.24950376E-05
  3.41105623E-16 -2.40200037E-16 -5.73470440E-01 -2.84249427E-02  1.27182470E-12
 -4.96205304E-05  1.65105116E-16  5.87463025E-03 -6.53746360E-12  3.89667077E-04
  3.30633178E-16  5.54706330E-03  5.52973131E-03  5.57482105E-03  1.63971853E-13
  2.31791547E-17 -1.28545832E-16 -2.86148979E-01 -1.41820680E-02  1.09229085E-04
 -2.37993414E-04  1.51982315E-16  2.90784910E-03 -5.14821414E-04  1.25700480E-03
  9.23052085E-17  2.78902287E-03  2.73947652E-03  2.78216974E-03 -2.24950376E-05
 -2.89601285E-16  7.25990058E-17  2.86148983E-01  1.41820682E-02 -1.09229084E-04
 -2.37993413E-04 -5.59631652E-17 -2.90784914E-03  5.14821409E-04  1.25700480E-03
 -9.87463686E-17 -2.78902291E-03 -2.73947656E-03 -2.78216978E-03 -2.24950376E-05
 -2.31481453E-17  4.51682840E-16 -2.37805258E-04  9.02567389E-04 -1.18464283E-04
  4.52593895E-04  1.18464285E-04 -4.52593902E-04  2.37805258E-04 -9.02567389E-04
  1.18464283E-04 -4.52593895E-04 -1.18464284E-04  4.52593902E-04  2.64148731E-09
  1.30895667E-10 -3.01046451E-04 -2.03645244E-13 -5.18736938E-16 -2.75632474E-11
  1.55421895E-03  2.07797455E-12  9.64980896E-16 -2.55333698E-11 -2.54530663E-11
 -2.56901615E-11  4.15885322E-05  5.12972472E-16 -4.38020762E-17  4.96301731E-01
  2.45991977E-02 -1.12264684E-04  1.08985807E-04  4.94068197E-17 -5.07054550E-03
  6.74707966E-04 -5.07782747E-04 -1.02071617E-15 -4.77416064E-03 -4.81293917E-03
 -4.82492108E-03 -2.80958389E-06 -5.31006771E-16 -3.37329674E-17  4.96301729E-01
  2.45991976E-02 -1.12264685E-04 -1.08985809E-04 -1.32111825E-16 -5.07054547E-03
  6.74707971E-04  5.07782758E-04  7.32966879E-16 -4.77416061E-03 -4.81293915E-03
 -4.82492105E-03  2.80958407E-06  2.27145907E-16  4.13562727E-17 -2.31281999E-09
 -1.14737168E-10 -3.01046451E-04 -2.34946860E-13  1.02653346E-16  2.42967737E-11
  1.55421895E-03  1.92372366E-12 -7.78302329E-17  2.23703789E-11  2.23040818E-11
  2.24415817E-11 -4.15885322E-05 -6.55486474E-16 -2.10195741E-16 -4.96301731E-01
 -2.45991977E-02 -1.12264684E-04  1.08985807E-04 -2.62037696E-16  5.07054550E-03
  6.74707966E-04 -5.07782747E-04 -1.31670037E-16  4.77416063E-03  4.81293917E-03
  4.82492108E-03  2.80958392E-06  3.29869209E-16 -6.18722341E-17 -4.96301729E-01
 -2.45991975E-02 -1.12264685E-04 -1.08985809E-04  3.08571482E-16  5.07054548E-03
  6.74707971E-04  5.07782758E-04 -4.25466020E-16  4.77416061E-03  4.81293914E-03
  4.82492105E-03 -2.80958412E-06 -4.20466685E-16 -1.32153233E-16 -1.10590358E-12
  4.14360672E-12 -2.05690019E-04  7.82403627E-04 -2.05690018E-04  7.82403622E-04
  9.63606016E-13 -3.50976001E-12  2.05690019E-04 -7.82403626E-04  2.05690018E-04
 -7.82403622E-04  5.72907508E-01  2.88518006E-02 -4.77159764E-12 -2.69540035E-04
 -1.19257244E-16 -1.15065924E-02  2.96788511E-11  2.42897668E-03  1.78770905E-16
 -5.01880100E-03 -5.27060141E-03 -5.43432515E-03  2.45567741E-12 -6.51647793E-16
 -9.10728411E-17 -2.87039361E-01 -1.44544471E-02  2.18621864E-04 -1.09473039E-04
  4.31255490E-16  5.75695857E-03 -1.68539660E-03  4.91240075E-04 -3.22003547E-17
  2.53100254E-03  2.62522149E-03  2.72303896E-03  1.15265003E-04 -2.74105698E-16
  5.83435594E-16 -2.87039381E-01 -1.44544481E-02  2.18621869E-04  1.09473030E-04
  1.91874717E-16  5.75695897E-03 -1.68539666E-03 -4.91240007E-04  4.31163261E-16
  2.53100272E-03  2.62522167E-03  2.72303915E-03 -1.15265006E-04 -2.40838177E-16
 -7.35293601E-16  5.72907508E-01  2.88518006E-02  4.81593882E-12  2.69540035E-04
 -1.25268636E-16 -1.15065924E-02 -2.99010154E-11 -2.42897667E-03 -6.21937699E-16
 -5.01880100E-03 -5.27060141E-03 -5.43432515E-03  2.46329638E-12  5.10200923E-16
 -1.37571826E-16 -2.87039360E-01 -1.44544471E-02 -2.18621864E-04  1.09473039E-04
 -4.63512394E-17  5.75695856E-03  1.68539660E-03 -4.91240076E-04  2.07704911E-16
  2.53100254E-03  2.62522149E-03  2.72303895E-03  1.15265003E-04  6.16767019E-18
 -1.68660476E-17 -2.87039381E-01 -1.44544481E-02 -2.18621870E-04 -1.09473030E-04
 -6.09677984E-17  5.75695897E-03  1.68539666E-03  4.91240006E-04 -4.55194281E-16
  2.53100272E-03  2.62522167E-03  2.72303915E-03 -1.15265006E-04 -2.48505329E-17
  4.19879457E-16 -2.05547508E-04  6.38667001E-04  1.03041405E-04 -3.20616985E-04
  1.03041413E-04 -3.20617008E-04 -2.05547508E-04  6.38667001E-04  1.03041405E-04
 -3.20616985E-04  1.03041413E-04 -3.20617008E-04 -1.14495569E-08 -5.76390190E-10
 -2.35697616E-04  5.36891542E-12  5.95686981E-17  2.25629407E-10  1.46429252E-03
 -4.60462703E-11  3.56519752E-16  1.00341048E-10  1.05382138E-10  1.08685546E-10
  1.20943516E-04  1.83062663E-16 -7.69419003E-16  4.96490797E-01  2.50029072E-02
 -1.43136194E-04 -2.18735892E-04 -2.63057433E-16 -9.96714654E-03  1.45540316E-03
  1.68572008E-03 -1.58708972E-16 -4.55863693E-03 -4.35891266E-03 -4.70966134E-03
 -7.87742478E-05  2.24404350E-16 -4.26475153E-17 -4.96490785E-01 -2.50029066E-02
  1.43136185E-04 -2.18735896E-04  8.97983882E-17  9.96714631E-03 -1.45540309E-03
  1.68572010E-03 -3.08106345E-16  4.55863683E-03  4.35891256E-03  4.70966123E-03
 -7.87742431E-05  8.12537660E-16  3.68779690E-17 -1.18719419E-08 -5.98058322E-10
  2.35697616E-04 -5.58795675E-12 -2.13575688E-16  2.42493862E-10 -1.46429252E-03
  5.27177341E-11  5.26679068E-16  1.03984383E-10  1.09182332E-10  1.12544431E-10
  1.20943516E-04  4.59850474E-16 -1.45934617E-16  4.96490797E-01  2.50029072E-02
  1.43136194E-04  2.18735892E-04  7.14119328E-17 -9.96714655E-03 -1.45540317E-03
 -1.68572009E-03 -1.31934860E-16 -4.55863694E-03 -4.35891267E-03 -4.70966135E-03
 -7.87742479E-05  4.62423608E-16  6.49444743E-16 -4.96490785E-01 -2.50029066E-02
 -1.43136185E-04  2.18735896E-04  1.22042971E-16  9.96714632E-03  1.45540310E-03
 -1.68572011E-03 -4.06679567E-16  4.55863683E-03  4.35891256E-03  4.70966123E-03
 -7.87742432E-05  2.38268198E-16  1.25527782E-16  4.04132888E-12 -1.32973372E-11
 -1.78160735E-04  5.53836173E-04  1.78160731E-04 -5.53836160E-04  4.32658615E-12
 -1.27272094E-11 -1.78160735E-04  5.53836173E-04  1.78160731E-04 -5.53836159E-04
 -4.05010723E-01 -2.10211321E-02 -9.01878934E-14  2.81212167E-04  1.00498639E-16
  2.04301835E-02  5.52063033E-13 -8.46148150E-03  4.89003723E-16  3.31141958E-03
  3.53478475E-03  3.62197444E-03  4.47470162E-14 -1.18546347E-16 -5.03179033E-16
  4.05839104E-01  2.10622149E-02 -2.43468920E-04 -1.40869135E-04 -3.13285572E-17
 -2.04386791E-02  7.32768225E-03  4.23214774E-03 -5.14924664E-16 -3.48697456E-03
 -3.37524247E-03 -3.63003069E-03 -1.11660275E-04 -2.88789571E-16  1.21919976E-16
 -4.05839104E-01 -2.10622149E-02  2.43468920E-04 -1.40869135E-04 -1.51026665E-16
  2.04386791E-02 -7.32768225E-03  4.23214774E-03  2.23612566E-16  3.48697456E-03
  3.37524247E-03  3.63003069E-03 -1.11660275E-04 -6.45942683E-17  7.18442256E-17
  4.05010724E-01  2.10211321E-02  8.11391068E-14  2.81212167E-04  7.92294406E-17
 -2.04301835E-02 -4.99545709E-13 -8.46148150E-03 -2.53187050E-16 -3.31141958E-03
 -3.53478475E-03 -3.62197444E-03  4.43643731E-14 -1.24632433E-16 -3.84815325E-18
 -4.05839103E-01 -2.10622148E-02 -2.43468920E-04 -1.40869135E-04 -6.48987494E-17
  2.04386791E-02  7.32768225E-03  4.23214774E-03 -7.55831131E-18  3.48697455E-03
  3.37524247E-03  3.63003069E-03  1.11660275E-04  1.76204691E-16 -1.12496041E-16
  4.05839103E-01  2.10622148E-02  2.43468920E-04 -1.40869135E-04 -6.62173962E-17
 -2.04386791E-02 -7.32768225E-03  4.23214774E-03 -3.93337699E-16 -3.48697455E-03