 Entering Gaussian System, Link 0=g09
 Initial command:
 /cm/shared/apps/gaussian/g09D01/g09/l1.exe "/local/dpadula/gaurun28072/Gau-2261.inp" -scrdir="/local/dpadula/gaurun28072"
 Entering Link 1 = /cm/shared/apps/gaussian/g09D01/g09/l1.exe PID=      2262.
  
 Copyright (c) 1988,1990,1992,1993,1995,1998,2003,2009,2013,
            Gaussian, Inc.  All Rights Reserved.
  
 This is part of the Gaussian(R) 09 program.  It is based on
 the Gaussian(R) 03 system (copyright 2003, Gaussian, Inc.),
 the Gaussian(R) 98 system (copyright 1998, Gaussian, Inc.),
 the Gaussian(R) 94 system (copyright 1995, Gaussian, Inc.),
 the Gaussian 92(TM) system (copyright 1992, Gaussian, Inc.),
 the Gaussian 90(TM) system (copyright 1990, Gaussian, Inc.),
 the Gaussian 88(TM) system (copyright 1988, Gaussian, Inc.),
 the Gaussian 86(TM) system (copyright 1986, Carnegie Mellon
 University), and the Gaussian 82(TM) system (copyright 1983,
 Carnegie Mellon University). Gaussian is a federally registered
 trademark of Gaussian, Inc.
  
 This software contains proprietary and confidential information,
 including trade secrets, belonging to Gaussian, Inc.
  
 This software is provided under written license and may be
 used, copied, transmitted, or stored only in accord with that
 written license.
  
 The following legend is applicable only to US Government
 contracts under FAR:
  
                    RESTRICTED RIGHTS LEGEND
  
 Use, reproduction and disclosure by the US Government is
 subject to restrictions as set forth in subparagraphs (a)
 and (c) of the Commercial Computer Software - Restricted
 Rights clause in FAR 52.227-19.
  
 Gaussian, Inc.
 340 Quinnipiac St., Bldg. 40, Wallingford CT 06492
  
  
 ---------------------------------------------------------------
 Warning -- This program may not be used in any manner that
 competes with the business of Gaussian, Inc. or will provide
 assistance to any competitor of Gaussian, Inc.  The licensee
 of this program is prohibited from giving any competitor of
 Gaussian, Inc. access to this program.  By using this program,
 the user acknowledges that Gaussian, Inc. is engaged in the
 business of creating and licensing software in the field of
 computational chemistry and represents and warrants to the
 licensee that it is not a competitor of Gaussian, Inc. and that
 it will not use this program in any manner prohibited above.
 ---------------------------------------------------------------
  

 Cite this work as:
 Gaussian 09, Revision D.01,
 M. J. Frisch, G. W. Trucks, H. B. Schlegel, G. E. Scuseria, 
 M. A. Robb, J. R. Cheeseman, G. Scalmani, V. Barone, B. Mennucci, 
 G. A. Petersson, H. Nakatsuji, M. Caricato, X. Li, H. P. Hratchian, 
 A. F. Izmaylov, J. Bloino, G. Zheng, J. L. Sonnenberg, M. Hada, 
 M. Ehara, K. Toyota, R. Fukuda, J. Hasegawa, M. Ishida, T. Nakajima, 
 Y. Honda, O. Kitao, H. Nakai, T. Vreven, J. A. Montgomery, Jr., 
 J. E. Peralta, F. Ogliaro, M. Bearpark, J. J. Heyd, E. Brothers, 
 K. N. Kudin, V. N. Staroverov, T. Keith, R. Kobayashi, J. Normand, 
 K. Raghavachari, A. Rendell, J. C. Burant, S. S. Iyengar, J. Tomasi, 
 M. Cossi, N. Rega, J. M. Millam, M. Klene, J. E. Knox, J. B. Cross, 
 V. Bakken, C. Adamo, J. Jaramillo, R. Gomperts, R. E. Stratmann, 
 O. Yazyev, A. J. Austin, R. Cammi, C. Pomelli, J. W. Ochterski, 
 R. L. Martin, K. Morokuma, V. G. Zakrzewski, G. A. Voth, 
 P. Salvador, J. J. Dannenberg, S. Dapprich, A. D. Daniels, 
 O. Farkas, J. B. Foresman, J. V. Ortiz, J. Cioslowski, 
 and D. J. Fox, Gaussian, Inc., Wallingford CT, 2013.
 
 ******************************************
 Gaussian 09:  ES64L-G09RevD.01 24-Apr-2013
                 2-Mar-2016 
 ******************************************
 %Mem=2500MW
 %NProcShared=12
 Will use up to   12 processors via shared memory.
 %Chk=temp.chk
 ----------------------------------------------------------------------
 #p td=(nstates=1) cam-b3lyp/cc-pvtz nosymm density=transition=1 iop(9/
 40=5)
 ----------------------------------------------------------------------
 1/38=1/1;
 2/12=2,15=1,17=6,18=5,40=1/2;
 3/5=16,6=1,11=9,16=1,25=1,30=1,74=-40/1,2,8,3;
 4//1;
 5/5=2,38=5/2;
 8/6=1,10=1,108=1/1;
 9/40=5,41=1,42=1,70=2/14;
 6/7=2,8=2,9=2,10=2,29=1/1;
 99/5=1,9=1/99;
 Leave Link    1 at Wed Mar  2 16:43:26 2016, MaxMem=  2621440000 cpu:         0.4
 (Enter /cm/shared/apps/gaussian/g09D01/g09/l101.exe)
 ------------------------
 bodipy_monomer_camccpvtz
 ------------------------
 Symbolic Z-matrix:
 Charge =  0 Multiplicity = 1
 C                     2.54995   0.        1.58639 
 C                     1.21408   0.        1.10985 
 C                     3.37799   0.        0.4744 
 H                     4.45642   0.        0.45626 
 C                     2.53702   0.       -0.65837 
 H                     2.80626   0.       -1.70418 
 N                     1.25176   0.       -0.28282 
 C                     0.        0.        1.78506 
 H                     0.        0.        2.86882 
 C                    -3.37799   0.        0.4744 
 H                    -4.45642   0.        0.45626 
 C                    -2.53702   0.       -0.65837 
 H                    -2.80626   0.       -1.70418 
 C                    -2.54995   0.        1.58639 
 H                    -2.84249   0.        2.62507 
 C                    -1.21408   0.        1.10985 
 N                    -1.25176   0.       -0.28282 
 B                     0.        0.       -1.22898 
 F                     0.        1.14645  -2.01919 
 F                     0.       -1.14645  -2.01919 
 H                     2.84249   0.        2.62507 
 
 NAtoms=     21 NQM=       21 NQMF=       0 NMMI=      0 NMMIF=      0
                NMic=       0 NMicF=      0.
                    Isotopes and Nuclear Properties:
 (Nuclear quadrupole moments (NQMom) in fm**2, nuclear magnetic moments (NMagM)
  in nuclear magnetons)

  Atom         1           2           3           4           5           6           7           8           9          10
 IAtWgt=          12          12          12           1          12           1          14          12           1          12
 AtmWgt=  12.0000000  12.0000000  12.0000000   1.0078250  12.0000000   1.0078250  14.0030740  12.0000000   1.0078250  12.0000000
 NucSpn=           0           0           0           1           0           1           2           0           1           0
 AtZEff=   0.0000000   0.0000000   0.0000000   0.0000000   0.0000000   0.0000000   0.0000000   0.0000000   0.0000000   0.0000000
 NQMom=    0.0000000   0.0000000   0.0000000   0.0000000   0.0000000   0.0000000   2.0440000   0.0000000   0.0000000   0.0000000
 NMagM=    0.0000000   0.0000000   0.0000000   2.7928460   0.0000000   2.7928460   0.4037610   0.0000000   2.7928460   0.0000000
 AtZNuc=   6.0000000   6.0000000   6.0000000   1.0000000   6.0000000   1.0000000   7.0000000   6.0000000   1.0000000   6.0000000

  Atom        11          12          13          14          15          16          17          18          19          20
 IAtWgt=           1          12           1          12           1          12          14          11          19          19
 AtmWgt=   1.0078250  12.0000000   1.0078250  12.0000000   1.0078250  12.0000000  14.0030740  11.0093053  18.9984033  18.9984033
 NucSpn=           1           0           1           0           1           0           2           3           1           1
 AtZEff=   0.0000000   0.0000000   0.0000000   0.0000000   0.0000000   0.0000000   0.0000000   0.0000000   0.0000000   0.0000000
 NQMom=    0.0000000   0.0000000   0.0000000   0.0000000   0.0000000   0.0000000   2.0440000   4.0590000   0.0000000   0.0000000
 NMagM=    2.7928460   0.0000000   2.7928460   0.0000000   2.7928460   0.0000000   0.4037610   2.6886370   2.6288670   2.6288670
 AtZNuc=   1.0000000   6.0000000   1.0000000   6.0000000   1.0000000   6.0000000   7.0000000   5.0000000   9.0000000   9.0000000

  Atom        21
 IAtWgt=           1
 AtmWgt=   1.0078250
 NucSpn=           1
 AtZEff=   0.0000000
 NQMom=    0.0000000
 NMagM=    2.7928460
 AtZNuc=   1.0000000
 Leave Link  101 at Wed Mar  2 16:43:27 2016, MaxMem=  2621440000 cpu:         1.2
 (Enter /cm/shared/apps/gaussian/g09D01/g09/l202.exe)
                          Input orientation:                          
 ---------------------------------------------------------------------
 Center     Atomic      Atomic             Coordinates (Angstroms)
 Number     Number       Type             X           Y           Z
 ---------------------------------------------------------------------
      1          6           0        2.549955    0.000000    1.586392
      2          6           0        1.214079    0.000000    1.109854
      3          6           0        3.377990    0.000000    0.474401
      4          1           0        4.456423    0.000000    0.456258
      5          6           0        2.537017    0.000000   -0.658370
      6          1           0        2.806261    0.000000   -1.704178
      7          7           0        1.251762    0.000000   -0.282825
      8          6           0        0.000000    0.000000    1.785061
      9          1           0        0.000000    0.000000    2.868818
     10          6           0       -3.377990    0.000000    0.474401
     11          1           0       -4.456423    0.000000    0.456258
     12          6           0       -2.537017    0.000000   -0.658370
     13          1           0       -2.806261    0.000000   -1.704178
     14          6           0       -2.549955    0.000000    1.586392
     15          1           0       -2.842486    0.000000    2.625068
     16          6           0       -1.214079    0.000000    1.109854
     17          7           0       -1.251762    0.000000   -0.282825
     18          5           0        0.000000    0.000000   -1.228981
     19          9           0        0.000000    1.146448   -2.019192
     20          9           0        0.000000   -1.146448   -2.019192
     21          1           0        2.842486    0.000000    2.625068
 ---------------------------------------------------------------------
                    Distance matrix (angstroms):
                    1          2          3          4          5
     1  C    0.000000
     2  C    1.418327   0.000000
     3  C    1.386422   2.255285   0.000000
     4  H    2.216263   3.307564   1.078585   0.000000
     5  C    2.244799   2.208343   1.410817   2.219575   0.000000
     6  H    3.300537   3.233236   2.252350   2.718550   1.079910
     7  N    2.275802   1.393188   2.257042   3.288783   1.338998
     8  C    2.557682   1.389206   3.623347   4.650314   3.522330
     9  H    2.854275   2.137275   4.140537   5.067558   4.344825
    10  C    6.031340   4.635828   6.755981   7.834434   6.022498
    11  H    7.096938   5.708045   7.834434   8.912845   7.081708
    12  C    5.560237   4.146967   6.022498   7.081708   5.074034
    13  H    6.286247   4.907332   6.556765   7.577207   5.444661
    14  C    5.099910   3.794080   6.031340   7.096938   5.560237
    15  H    5.491563   4.330312   6.581770   7.614316   6.302382
    16  C    3.794080   2.428159   4.635828   5.708045   4.146967
    17  N    4.236393   2.831948   4.691268   5.755833   3.807346
    18  B    3.798499   2.635173   3.783164   4.764424   2.600395
    19  F    4.562549   3.546725   4.352375   5.225122   3.098812
    20  F    4.562549   3.546725   4.352375   5.225122   3.098812
    21  H    1.079084   2.224316   2.216333   2.703429   3.297616
                    6          7          8          9         10
     6  H    0.000000
     7  N    2.106350   0.000000
     8  C    4.477710   2.417242   0.000000
     9  H    5.365388   3.391129   1.083757   0.000000
    10  C    6.556765   4.691268   3.623347   4.140537   0.000000
    11  H    7.577207   5.755833   4.650314   5.067558   1.078585
    12  C    5.444661   3.807346   3.522330   4.344825   1.410817
    13  H    5.612523   4.299744   4.477710   5.365388   2.252350
    14  C    6.286247   4.236393   2.557682   2.854275   1.386422
    15  H    7.116931   5.021823   2.964007   2.852918   2.216333
    16  C    4.907332   2.831948   1.389206   2.137275   2.255285
    17  N    4.299744   2.503524   2.417242   3.391129   2.257042
    18  B    2.846211   1.569114   3.014041   4.097799   3.783164
    19  F    3.047734   2.428214   3.973246   5.020656   4.352375
    20  F    3.047734   2.428214   3.973246   5.020656   4.352375
    21  H    4.329397   3.314550   2.964007   2.852918   6.581770
                   11         12         13         14         15
    11  H    0.000000
    12  C    2.219575   0.000000
    13  H    2.718550   1.079910   0.000000
    14  C    2.216263   2.244799   3.300537   0.000000
    15  H    2.703429   3.297616   4.329397   1.079084   0.000000
    16  C    3.307564   2.208343   3.233236   1.418327   2.224316
    17  N    3.288783   1.338998   2.106350   2.275802   3.314550
    18  B    4.764424   2.600395   2.846211   3.798499   4.788885
    19  F    5.225122   3.098812   3.047734   4.562549   5.564461
    20  F    5.225122   3.098812   3.047734   4.562549   5.564461
    21  H    7.614316   6.302382   7.116931   5.491563   5.684972
                   16         17         18         19         20
    16  C    0.000000
    17  N    1.393188   0.000000
    18  B    2.635173   1.569114   0.000000
    19  F    3.546725   2.428214   1.392400   0.000000
    20  F    3.546725   2.428214   1.392400   2.292896   0.000000
    21  H    4.330312   5.021823   4.788885   5.564461   5.564461
                   21
    21  H    0.000000
 Symmetry turned off by external request.
 Stoichiometry    C9H7BF2N2
 Framework group  C2V[C2(BCH),SGV(C8H6N2),SGV'(F2)]
 Deg. of freedom    20
 Full point group                 C2V     NOp   4
 Rotational constants (GHZ):      1.2775564      0.6431573      0.4673035
 Leave Link  202 at Wed Mar  2 16:43:27 2016, MaxMem=  2621440000 cpu:         0.1
 (Enter /cm/shared/apps/gaussian/g09D01/g09/l301.exe)
 Standard basis: CC-pVTZ (5D, 7F)
 Ernie: Thresh=  0.10000D-02 Tol=  0.10000D-05 Strict=F.
 Ernie:  42 primitive shells out of 420 were deleted.
   518 basis functions,   847 primitive gaussians,   595 cartesian basis functions
    49 alpha electrons       49 beta electrons
       nuclear repulsion energy       859.6891634832 Hartrees.
 IExCor=20419 DFT=T Ex+Corr=CAM-B3LYP ExCW=0 ScaHFX=  1.000000
 ScaDFX=  1.000000  1.000000  1.000000  0.810000 ScalE2=  1.000000  1.000000
 IRadAn=      0 IRanWt=     -1 IRanGd=            0 ICorTp=0 IEmpDi=  4
  HFx wShort=  0.000000 wLong=  0.330000 cFull=  0.190000 cShort=  0.000000 cLong=  0.460000
  DFx wShort=  0.000000 wLong=  0.330000 cFull=  0.190000 cShort=  0.000000 cLong=  0.460000
 NAtoms=   21 NActive=   21 NUniq=   21 SFac= 1.00D+00 NAtFMM=   60 NAOKFM=F Big=F
 Integral buffers will be    131072 words long.
 Raffenetti 1 integral format.
 Two-electron integral symmetry is turned off.
 Leave Link  301 at Wed Mar  2 16:43:27 2016, MaxMem=  2621440000 cpu:         1.3
 (Enter /cm/shared/apps/gaussian/g09D01/g09/l302.exe)
 NPDir=0 NMtPBC=     1 NCelOv=     1 NCel=       1 NClECP=     1 NCelD=      1
         NCelK=      1 NCelE2=     1 NClLst=     1 CellRange=     0.0.
 One-electron integrals computed using PRISM.
 NBasis=   518 RedAO= T EigKep=  4.56D-05  NBF=   518
 NBsUse=   518 1.00D-06 EigRej= -1.00D+00 NBFU=   518
 Precomputing XC quadrature grid using
 IXCGrd= 4 IRadAn=           0 IRanWt=          -1 IRanGd=           0 AccXCQ= 0.00D+00.
 Generated NRdTot=       0 NPtTot=           0 NUsed=           0 NTot=          32
 NSgBfM=   594   594   594   595   595 MxSgAt=    21 MxSgA2=    21.
 Leave Link  302 at Wed Mar  2 16:43:27 2016, MaxMem=  2621440000 cpu:         7.5
 (Enter /cm/shared/apps/gaussian/g09D01/g09/l308.exe)
 Leave Link  308 at Wed Mar  2 16:43:28 2016, MaxMem=  2621440000 cpu:         1.6
 (Enter /cm/shared/apps/gaussian/g09D01/g09/l303.exe)
 DipDrv:  MaxL=1.
 Leave Link  303 at Wed Mar  2 16:43:28 2016, MaxMem=  2621440000 cpu:         1.1
 (Enter /cm/shared/apps/gaussian/g09D01/g09/l401.exe)
 ExpMin= 7.70D-02 ExpMax= 1.95D+04 ExpMxC= 6.65D+02 IAcc=2 IRadAn=         4 AccDes= 0.00D+00
 Harris functional with IExCor=20419 and IRadAn=       4 diagonalized for initial guess.
 HarFok:  IExCor=20419 AccDes= 0.00D+00 IRadAn=         4 IDoV= 1 UseB2=F ITyADJ=14
 ICtDFT=  3500011 ScaDFX=  1.000000  1.000000  1.000000  1.000000
 FoFCou: FMM=F IPFlag=           0 FMFlag=      100000 FMFlg1=           0
         NFxFlg=           0 DoJE=T BraDBF=F KetDBF=T FulRan=T
         wScrn=  0.000000 ICntrl=     500 IOpCl=  0 I1Cent=   200000004 NGrid=           0
         NMat0=    1 NMatS0=      1 NMatT0=    0 NMatD0=    1 NMtDS0=    0 NMtDT0=    0
 Symmetry not used in FoFCou.
 Harris En= -656.851608401838    
 JPrj=0 DoOrth=F DoCkMO=F.
 Leave Link  401 at Wed Mar  2 16:43:29 2016, MaxMem=  2621440000 cpu:        20.9
 (Enter /cm/shared/apps/gaussian/g09D01/g09/l502.exe)
 Closed shell SCF:
 Using DIIS extrapolation, IDIIS=  1040.
 Two-electron integral symmetry not used.
 IVT=     1091377 IEndB=     1091377 NGot=  2621440000 MDV=  2620719884
 LenX=  2620719884 LenY=  2620365264
 Requested convergence on RMS density matrix=1.00D-08 within 128 cycles.
 Requested convergence on MAX density matrix=1.00D-06.
 Requested convergence on             energy=1.00D-06.
 No special actions if energy rises.
 Fock matrices will be formed incrementally for  20 cycles.
 Integral accuracy reduced to 1.0D-05 until final iterations.

 Cycle   1  Pass 0  IDiag  1:
 FoFJK:  IHMeth= 1 ICntrl=       0 DoSepK=T KAlg= 0 I1Cent=   0 FoldK=F
 IRaf=         1 NMat=   1 IRICut=       1 DoRegI=T DoRafI=F ISym2E= 0.
 FoFCou: FMM=F IPFlag=           0 FMFlag=      100000 FMFlg1=           0
         NFxFlg=           0 DoJE=T BraDBF=F KetDBF=F FulRan=T
         wScrn=  0.000000 ICntrl=     500 IOpCl=  0 I1Cent=           0 NGrid=           0
         NMat0=    1 NMatS0=      1 NMatT0=    0 NMatD0=    1 NMtDS0=    0 NMtDT0=    0
 Symmetry not used in FoFCou.
 E= -681.119255569481    
 DIIS: error= 4.24D-02 at cycle   1 NSaved=   1.
 NSaved= 1 IEnMin= 1 EnMin= -681.119255569481     IErMin= 1 ErrMin= 4.24D-02
 ErrMax= 4.24D-02  0.00D+00 EMaxC= 1.00D-01 BMatC= 8.97D-01 BMatP= 8.97D-01
 IDIUse=3 WtCom= 5.76D-01 WtEn= 4.24D-01
 Coeff-Com:  0.100D+01
 Coeff-En:   0.100D+01
 Coeff:      0.100D+01
 Gap=     0.184 Goal=   None    Shift=    0.000
 GapD=    0.184 DampG=1.000 DampE=0.500 DampFc=0.5000 IDamp=-1.
 Damping current iteration by 5.00D-01
 RMSDP=2.20D-03 MaxDP=9.90D-02              OVMax= 1.60D-01

 Cycle   2  Pass 0  IDiag  1:
 RMSU=  1.08D-03    CP:  9.77D-01
 E= -681.206907557985     Delta-E=       -0.087651988504 Rises=F Damp=T
 DIIS: error= 1.76D-02 at cycle   2 NSaved=   2.
 NSaved= 2 IEnMin= 2 EnMin= -681.206907557985     IErMin= 2 ErrMin= 1.76D-02
 ErrMax= 1.76D-02  0.00D+00 EMaxC= 1.00D-01 BMatC= 1.65D-01 BMatP= 8.97D-01
 IDIUse=3 WtCom= 8.24D-01 WtEn= 1.76D-01
 Coeff-Com: -0.350D+00 0.135D+01
 Coeff-En:   0.000D+00 0.100D+01
 Coeff:     -0.288D+00 0.129D+01
 Gap=     0.197 Goal=   None    Shift=    0.000
 RMSDP=7.50D-04 MaxDP=3.80D-02 DE=-8.77D-02 OVMax= 1.81D-01

 Cycle   3  Pass 0  IDiag  1:
 RMSU=  6.24D-04    CP:  9.72D-01  1.38D+00
 E= -681.256084157508     Delta-E=       -0.049176599523 Rises=F Damp=F
 DIIS: error= 1.68D-02 at cycle   3 NSaved=   3.
 NSaved= 3 IEnMin= 3 EnMin= -681.256084157508     IErMin= 3 ErrMin= 1.68D-02
 ErrMax= 1.68D-02  0.00D+00 EMaxC= 1.00D-01 BMatC= 7.91D-02 BMatP= 1.65D-01
 IDIUse=3 WtCom= 8.32D-01 WtEn= 1.68D-01
 Coeff-Com: -0.310D+00 0.690D+00 0.620D+00
 Coeff-En:   0.000D+00 0.788D-01 0.921D+00
 Coeff:     -0.258D+00 0.587D+00 0.671D+00
 Gap=     0.192 Goal=   None    Shift=    0.000
 RMSDP=4.75D-04 MaxDP=2.32D-02 DE=-4.92D-02 OVMax= 8.36D-02

 Cycle   4  Pass 0  IDiag  1:
 RMSU=  1.47D-04    CP:  9.62D-01  1.68D+00  5.01D-01
 E= -681.309437232462     Delta-E=       -0.053353074953 Rises=F Damp=F
 DIIS: error= 6.81D-03 at cycle   4 NSaved=   4.
 NSaved= 4 IEnMin= 4 EnMin= -681.309437232462     IErMin= 4 ErrMin= 6.81D-03
 ErrMax= 6.81D-03  0.00D+00 EMaxC= 1.00D-01 BMatC= 1.14D-02 BMatP= 7.91D-02
 IDIUse=3 WtCom= 9.32D-01 WtEn= 6.81D-02
 Coeff-Com: -0.158D+00 0.342D+00 0.420D+00 0.396D+00
 Coeff-En:   0.000D+00 0.000D+00 0.119D+00 0.881D+00
 Coeff:     -0.147D+00 0.319D+00 0.399D+00 0.429D+00
 Gap=     0.193 Goal=   None    Shift=    0.000
 RMSDP=1.07D-04 MaxDP=7.06D-03 DE=-5.34D-02 OVMax= 2.53D-02

 Cycle   5  Pass 0  IDiag  1:
 RMSU=  6.20D-05    CP:  9.63D-01  1.64D+00  6.11D-01  7.33D-01
 E= -681.319021513670     Delta-E=       -0.009584281208 Rises=F Damp=F
 DIIS: error= 5.42D-04 at cycle   5 NSaved=   5.
 NSaved= 5 IEnMin= 5 EnMin= -681.319021513670     IErMin= 5 ErrMin= 5.42D-04
 ErrMax= 5.42D-04  0.00D+00 EMaxC= 1.00D-01 BMatC= 8.40D-05 BMatP= 1.14D-02
 IDIUse=3 WtCom= 9.95D-01 WtEn= 5.42D-03
 Coeff-Com:  0.136D-01-0.302D-01-0.811D-03 0.926D-01 0.925D+00
 Coeff-En:   0.000D+00 0.000D+00 0.000D+00 0.000D+00 0.100D+01
 Coeff:      0.135D-01-0.301D-01-0.807D-03 0.921D-01 0.925D+00
 Gap=     0.194 Goal=   None    Shift=    0.000
 RMSDP=1.62D-05 MaxDP=5.21D-04 DE=-9.58D-03 OVMax= 3.94D-03

 Cycle   6  Pass 0  IDiag  1:
 RMSU=  1.09D-05    CP:  9.63D-01  1.65D+00  6.12D-01  8.07D-01  9.81D-01
 E= -681.319090789063     Delta-E=       -0.000069275394 Rises=F Damp=F
 DIIS: error= 2.16D-04 at cycle   6 NSaved=   6.
 NSaved= 6 IEnMin= 6 EnMin= -681.319090789063     IErMin= 6 ErrMin= 2.16D-04
 ErrMax= 2.16D-04  0.00D+00 EMaxC= 1.00D-01 BMatC= 9.76D-06 BMatP= 8.40D-05
 IDIUse=3 WtCom= 9.98D-01 WtEn= 2.16D-03
 Coeff-Com:  0.133D-01-0.292D-01-0.192D-01 0.224D-01 0.446D+00 0.567D+00
 Coeff-En:   0.000D+00 0.000D+00 0.000D+00 0.000D+00 0.000D+00 0.100D+01
 Coeff:      0.133D-01-0.291D-01-0.192D-01 0.224D-01 0.445D+00 0.568D+00
 Gap=     0.194 Goal=   None    Shift=    0.000
 RMSDP=4.61D-06 MaxDP=2.18D-04 DE=-6.93D-05 OVMax= 1.51D-03

 Initial convergence to 1.0D-05 achieved.  Increase integral accuracy.
 Cycle   7  Pass 1  IDiag  1:
 E= -681.319099608542     Delta-E=       -0.000008819479 Rises=F Damp=F
 DIIS: error= 1.83D-04 at cycle   1 NSaved=   1.
 NSaved= 1 IEnMin= 1 EnMin= -681.319099608542     IErMin= 1 ErrMin= 1.83D-04
 ErrMax= 1.83D-04  0.00D+00 EMaxC= 1.00D-01 BMatC= 8.38D-06 BMatP= 8.38D-06
 IDIUse=3 WtCom= 9.98D-01 WtEn= 1.83D-03
 Coeff-Com:  0.100D+01
 Coeff-En:   0.100D+01
 Coeff:      0.100D+01
 Gap=     0.194 Goal=   None    Shift=    0.000
 RMSDP=4.61D-06 MaxDP=2.18D-04 DE=-8.82D-06 OVMax= 8.09D-04

 Cycle   8  Pass 1  IDiag  1:
 RMSU=  1.25D-04    CP:  1.00D+00
 E= -681.319103006675     Delta-E=       -0.000003398133 Rises=F Damp=F
 DIIS: error= 1.01D-04 at cycle   2 NSaved=   2.
 NSaved= 2 IEnMin= 2 EnMin= -681.319103006675     IErMin= 2 ErrMin= 1.01D-04
 ErrMax= 1.01D-04  0.00D+00 EMaxC= 1.00D-01 BMatC= 1.62D-06 BMatP= 8.38D-06
 IDIUse=3 WtCom= 9.99D-01 WtEn= 1.01D-03
 Coeff-Com:  0.217D+00 0.783D+00
 Coeff-En:   0.000D+00 0.100D+01
 Coeff:      0.217D+00 0.783D+00
 Gap=     0.194 Goal=   None    Shift=    0.000
 RMSDP=4.15D-06 MaxDP=1.58D-04 DE=-3.40D-06 OVMax= 7.75D-04

 Cycle   9  Pass 1  IDiag  1:
 RMSU=  2.74D-06    CP:  1.00D+00  1.02D+00
 E= -681.319103266667     Delta-E=       -0.000000259992 Rises=F Damp=F
 DIIS: error= 1.07D-04 at cycle   3 NSaved=   3.
 NSaved= 3 IEnMin= 3 EnMin= -681.319103266667     IErMin= 2 ErrMin= 1.01D-04
 ErrMax= 1.07D-04  0.00D+00 EMaxC= 1.00D-01 BMatC= 1.41D-06 BMatP= 1.62D-06
 IDIUse=3 WtCom= 9.99D-01 WtEn= 1.07D-03
 Coeff-Com: -0.127D-01 0.485D+00 0.528D+00
 Coeff-En:   0.000D+00 0.461D+00 0.539D+00
 Coeff:     -0.127D-01 0.485D+00 0.528D+00
 Gap=     0.194 Goal=   None    Shift=    0.000
 RMSDP=1.64D-06 MaxDP=5.71D-05 DE=-2.60D-07 OVMax= 3.78D-04

 Cycle  10  Pass 1  IDiag  1:
 RMSU=  7.54D-07    CP:  1.00D+00  1.03D+00  6.20D-01
 E= -681.319104608820     Delta-E=       -0.000001342153 Rises=F Damp=F
 DIIS: error= 5.34D-06 at cycle   4 NSaved=   4.
 NSaved= 4 IEnMin= 4 EnMin= -681.319104608820     IErMin= 4 ErrMin= 5.34D-06
 ErrMax= 5.34D-06  0.00D+00 EMaxC= 1.00D-01 BMatC= 6.69D-09 BMatP= 1.41D-06
 IDIUse=1 WtCom= 1.00D+00 WtEn= 0.00D+00
 Coeff-Com: -0.673D-02 0.178D+00 0.193D+00 0.635D+00
 Coeff:     -0.673D-02 0.178D+00 0.193D+00 0.635D+00
 Gap=     0.194 Goal=   None    Shift=    0.000
 RMSDP=1.37D-07 MaxDP=5.91D-06 DE=-1.34D-06 OVMax= 3.84D-05

 Cycle  11  Pass 1  IDiag  1:
 RMSU=  1.16D-07    CP:  1.00D+00  1.03D+00  6.34D-01  1.07D+00
 E= -681.319104616657     Delta-E=       -0.000000007837 Rises=F Damp=F
 DIIS: error= 4.46D-06 at cycle   5 NSaved=   5.
 NSaved= 5 IEnMin= 5 EnMin= -681.319104616657     IErMin= 5 ErrMin= 4.46D-06
 ErrMax= 4.46D-06  0.00D+00 EMaxC= 1.00D-01 BMatC= 1.31D-09 BMatP= 6.69D-09
 IDIUse=1 WtCom= 1.00D+00 WtEn= 0.00D+00
 Coeff-Com:  0.213D-02-0.114D+00-0.132D+00 0.237D+00 0.101D+01
 Coeff:      0.213D-02-0.114D+00-0.132D+00 0.237D+00 0.101D+01
 Gap=     0.194 Goal=   None    Shift=    0.000
 RMSDP=1.53D-07 MaxDP=5.91D-06 DE=-7.84D-09 OVMax= 6.25D-05

 Cycle  12  Pass 1  IDiag  1:
 RMSU=  1.01D-07    CP:  1.00D+00  1.03D+00  6.40D-01  1.20D+00  1.36D+00
 E= -681.319104620588     Delta-E=       -0.000000003931 Rises=F Damp=F
 DIIS: error= 1.43D-06 at cycle   6 NSaved=   6.
 NSaved= 6 IEnMin= 6 EnMin= -681.319104620588     IErMin= 6 ErrMin= 1.43D-06
 ErrMax= 1.43D-06  0.00D+00 EMaxC= 1.00D-01 BMatC= 3.56D-10 BMatP= 1.31D-09
 IDIUse=1 WtCom= 1.00D+00 WtEn= 0.00D+00
 Coeff-Com:  0.156D-02-0.734D-01-0.851D-01 0.604D-01 0.550D+00 0.546D+00
 Coeff:      0.156D-02-0.734D-01-0.851D-01 0.604D-01 0.550D+00 0.546D+00
 Gap=     0.194 Goal=   None    Shift=    0.000
 RMSDP=3.13D-08 MaxDP=1.31D-06 DE=-3.93D-09 OVMax= 8.89D-06

 Cycle  13  Pass 1  IDiag  1:
 RMSU=  2.55D-08    CP:  1.00D+00  1.03D+00  6.40D-01  1.22D+00  1.47D+00
                    CP:  1.06D+00
 E= -681.319104620942     Delta-E=       -0.000000000354 Rises=F Damp=F
 DIIS: error= 3.43D-07 at cycle   7 NSaved=   7.
 NSaved= 7 IEnMin= 7 EnMin= -681.319104620942     IErMin= 7 ErrMin= 3.43D-07
 ErrMax= 3.43D-07  0.00D+00 EMaxC= 1.00D-01 BMatC= 2.37D-11 BMatP= 3.56D-10
 IDIUse=1 WtCom= 1.00D+00 WtEn= 0.00D+00
 Coeff-Com:  0.292D-03-0.104D-01-0.130D-01-0.196D-01 0.724D-01 0.226D+00
 Coeff-Com:  0.744D+00
 Coeff:      0.292D-03-0.104D-01-0.130D-01-0.196D-01 0.724D-01 0.226D+00
 Coeff:      0.744D+00
 Gap=     0.194 Goal=   None    Shift=    0.000
 RMSDP=1.27D-08 MaxDP=3.87D-07 DE=-3.54D-10 OVMax= 3.94D-06

 Cycle  14  Pass 1  IDiag  1:
 RMSU=  6.45D-09    CP:  1.00D+00  1.03D+00  6.40D-01  1.22D+00  1.50D+00
                    CP:  1.13D+00  9.55D-01
 E= -681.319104620975     Delta-E=       -0.000000000033 Rises=F Damp=F
 DIIS: error= 6.83D-08 at cycle   8 NSaved=   8.
 NSaved= 8 IEnMin= 8 EnMin= -681.319104620975     IErMin= 8 ErrMin= 6.83D-08
 ErrMax= 6.83D-08  0.00D+00 EMaxC= 1.00D-01 BMatC= 1.84D-12 BMatP= 2.37D-11
 IDIUse=1 WtCom= 1.00D+00 WtEn= 0.00D+00
 Coeff-Com: -0.606D-04 0.378D-02 0.392D-02-0.157D-01-0.317D-01 0.184D-01
 Coeff-Com:  0.221D+00 0.801D+00
 Coeff:     -0.606D-04 0.378D-02 0.392D-02-0.157D-01-0.317D-01 0.184D-01
 Coeff:      0.221D+00 0.801D+00
 Gap=     0.194 Goal=   None    Shift=    0.000
 RMSDP=4.39D-09 MaxDP=1.06D-07 DE=-3.27D-11 OVMax= 1.25D-06

 SCF Done:  E(RCAM-B3LYP) =  -681.319104621     A.U. after   14 cycles
            NFock= 14  Conv=0.44D-08     -V/T= 2.0062
 KE= 6.771412407194D+02 PE=-3.314610047444D+03 EE= 1.096460538621D+03
 Leave Link  502 at Wed Mar  2 16:48:40 2016, MaxMem=  2621440000 cpu:      3717.6
 (Enter /cm/shared/apps/gaussian/g09D01/g09/l801.exe)
 DoSCS=F DFT=T ScalE2(SS,OS)=  1.000000  1.000000
 ExpMin= 7.70D-02 ExpMax= 1.95D+04 ExpMxC= 6.65D+02 IAcc=3 IRadAn=         5 AccDes= 0.00D+00
 HarFok:  IExCor=  205 AccDes= 0.00D+00 IRadAn=         5 IDoV=-2 UseB2=F ITyADJ=14
 ICtDFT= 12500011 ScaDFX=  1.000000  1.000000  1.000000  1.000000
 Largest valence mixing into a core orbital is  1.02D-04
 Largest core mixing into a valence orbital is  1.62D-05
 Range of M.O.s used for correlation:    15   518
 NBasis=   518 NAE=    49 NBE=    49 NFC=    14 NFV=     0
 NROrb=    504 NOA=    35 NOB=    35 NVA=   469 NVB=   469

 **** Warning!!: The largest alpha MO coefficient is  0.28833425D+02

 Leave Link  801 at Wed Mar  2 16:48:40 2016, MaxMem=  2621440000 cpu:         2.4
 (Enter /cm/shared/apps/gaussian/g09D01/g09/l914.exe)
 RHF ground state
 MDV=  2621440000 DFT=T DoStab=F Mixed=T DoRPA=T DoScal=F NonHer=T
 Would need an additional         51747800000 words for in-memory AO integral storage.
 Making orbital integer symmetry assigments:
     8 initial guesses have been made.
 Convergence on wavefunction:    0.001000000000000
 Davidson Disk Diagonalization:  ConvIn= 1.00D-03 SkipCon=T Conv= 1.00D-03.
 Max sub-space:   200 roots to seek:     8 dimension of matrix:        32830
 Iteration     1 Dimension     8 NMult     0 NNew      8
 CISAX will form     8 AO SS matrices at one time.
 NMat=     8 NSing=     8 JSym2X= 0.
 FoFJK:  IHMeth= 1 ICntrl=       0 DoSepK=T KAlg= 0 I1Cent=   0 FoldK=F
 IRaf=         1 NMat=  16 IRICut=       1 DoRegI=T DoRafI=F ISym2E= 0.
 FoFCou: FMM=F IPFlag=           0 FMFlag=      100000 FMFlg1=           0
         NFxFlg=           0 DoJE=F BraDBF=F KetDBF=F FulRan=T
         wScrn=  0.000000 ICntrl=     500 IOpCl=  0 I1Cent=           0 NGrid=           0
         NMat0=    8 NMatS0=      8 NMatT0=    0 NMatD0=    8 NMtDS0=    0 NMtDT0=    0
 Symmetry not used in FoFCou.
 Excitation Energies [eV] at current iteration:
 Root      1 :     3.848895272163981
 Root      2 :     4.550819233885947
 Root      3 :     4.774420827310558
 Root      4 :     6.048990289732338
 Root      5 :     6.330218772049149
 Root      6 :     6.896753487430882
 Root      7 :     6.967284487659537
 Root      8 :     7.735841279372900
 Iteration     2 Dimension    12 NMult     8 NNew      4
 CISAX will form     4 AO SS matrices at one time.
 NMat=     4 NSing=     4 JSym2X= 0.
 Root      1 not converged, maximum delta is    0.083986517945829
 Excitation Energies [eV] at current iteration:
 Root      1 :     3.156944588929593   Change is   -0.691950683234389
 Root      2 :     4.022735647962564   Change is   -0.528083585923383
 Iteration     3 Dimension    16 NMult    12 NNew      4
 CISAX will form     4 AO SS matrices at one time.
 NMat=     4 NSing=     4 JSym2X= 0.
 Root      1 not converged, maximum delta is    0.020082966499839
 Excitation Energies [eV] at current iteration:
 Root      1 :     3.106443529407105   Change is   -0.050501059522487
 Root      2 :     4.002713061406082   Change is   -0.020022586556482
 Iteration     4 Dimension    20 NMult    16 NNew      4
 CISAX will form     4 AO SS matrices at one time.
 NMat=     4 NSing=     4 JSym2X= 0.
 Root      1 not converged, maximum delta is    0.003787334427104
 Excitation Energies [eV] at current iteration:
 Root      1 :     3.103723323569958   Change is   -0.002720205837148
 Root      2 :     3.998650110872088   Change is   -0.004062950533994
 Iteration     5 Dimension    24 NMult    20 NNew      4
 CISAX will form     4 AO SS matrices at one time.
 NMat=     4 NSing=     4 JSym2X= 0.
 Root      1 not converged, maximum delta is    0.001415402840021
 Excitation Energies [eV] at current iteration:
 Root      1 :     3.103527572493888   Change is   -0.000195751076069
 Root      2 :     3.998298958409928   Change is   -0.000351152462159
 Iteration     6 Dimension    28 NMult    24 NNew      4
 CISAX will form     4 AO SS matrices at one time.
 NMat=     4 NSing=     4 JSym2X= 0.
 Root      1 has converged.
 Excitation Energies [eV] at current iteration:
 Root      1 :     3.103516884100979   Change is   -0.000010688392909
 Root      2 :     3.998261781362056   Change is   -0.000037177047872
 Convergence achieved on expansion vectors.
 ***********************************************************************
 Excited states from <AA,BB:AA,BB> singles matrix:
 ***********************************************************************
 
 1PDM for each excited state written to RWF  633
 Ground to excited state transition densities written to RWF  633
 Ground to excited state transition electric dipole moments (Au):
       state          X           Y           Z        Dip. S.      Osc.
         1         2.5580      0.0000      0.0000      6.5433      0.4975
 Ground to excited state transition velocity dipole moments (Au):
       state          X           Y           Z        Dip. S.      Osc.
         1        -0.2890      0.0000      0.0000      0.0835      0.4881
 Ground to excited state transition magnetic dipole moments (Au):
       state          X           Y           Z
         1         0.0000     -1.8725      0.0000
 Ground to excited state transition velocity quadrupole moments (Au):
       state          XX          YY          ZZ          XY          XZ          YZ
         1         0.0000      0.0000      0.0000      0.0000     -0.0372      0.0000
 <0|del|b> * <b|rxdel|0> + <0|del|b> * <b|delr+rdel|0>
 Rotatory Strengths (R) in cgs (10**-40 erg-esu-cm/Gauss)
       state          XX          YY          ZZ    R(velocity)    E-M Angle
         1         0.0000      0.0000      0.0000      0.0000       90.00
 1/2[<0|r|b>*<b|rxdel|0> + (<0|rxdel|b>*<b|r|0>)*]
 Rotatory Strengths (R) in cgs (10**-40 erg-esu-cm/Gauss)
       state          XX          YY          ZZ     R(length)
         1         0.0000      0.0000      0.0000      0.0000
  1/2[<0|del|b>*<b|r|0> + (<0|r|b>*<b|del|0>)*] (Au)
       state          X           Y           Z        Dip. S.   Osc.(frdel)
         1        -0.7392      0.0000      0.0000      0.7392      0.4928

 Excitation energies and oscillator strengths:
 
 Excited state symmetry could not be determined.
 Excited State   1:      Singlet-?Sym    3.1035 eV  399.50 nm  f=0.4975  <S**2>=0.000
      15 -> 54        -0.00009
      15 -> 59         0.00007
      15 -> 63         0.00032
      15 -> 66        -0.00017
      15 -> 68         0.00035
      15 -> 70         0.00007
      15 -> 73         0.00054
      15 -> 77         0.00034
      15 -> 84         0.00004
      15 -> 85        -0.00026
      15 -> 90         0.00018
      15 -> 95        -0.00015
      15 -> 98        -0.00008
      15 ->101         0.00004
      15 ->103        -0.00009
      15 ->104         0.00010
      15 ->109        -0.00017
      15 ->111        -0.00022
      15 ->116        -0.00015
      15 ->117         0.00007
      15 ->118         0.00013
      15 ->121         0.00010
      15 ->126        -0.00005
      15 ->132        -0.00014
      15 ->139         0.00020
      15 ->142         0.00027
      15 ->146        -0.00035
      15 ->148         0.00010
      15 ->154         0.00003
      15 ->160        -0.00011
      15 ->162        -0.00011
      15 ->163         0.00001
      15 ->166        -0.00018
      15 ->169        -0.00005
      15 ->174         0.00004
      15 ->175        -0.00003
      15 ->177         0.00008
      15 ->182        -0.00006
      15 ->183         0.00002
      15 ->187         0.00003
      15 ->190        -0.00013
      15 ->192        -0.00004
      15 ->197        -0.00005
      15 ->202         0.00031
      15 ->204        -0.00027
      15 ->206         0.00007
      15 ->212         0.00005
      15 ->215        -0.00011
      15 ->219         0.00007
      15 ->222        -0.00010
      15 ->229         0.00030
      15 ->231         0.00007
      15 ->236         0.00002
      15 ->239        -0.00005
      15 ->246         0.00007
      15 ->256        -0.00001
      15 ->257         0.00002
      15 ->261         0.00002
      15 ->270         0.00001
      15 ->272        -0.00005
      15 ->274        -0.00001
      15 ->277        -0.00002
      15 ->280         0.00003
      15 ->293        -0.00001
      15 ->300         0.00002
      15 ->303        -0.00002
      15 ->307         0.00002
      15 ->316         0.00002
      15 ->327         0.00001
      15 ->337        -0.00002
      15 ->341        -0.00002
      15 ->351         0.00001
      15 ->363         0.00002
      15 ->382         0.00002
      15 ->397         0.00002
      15 ->413        -0.00001
      15 ->415        -0.00001
      15 ->426         0.00003
      15 ->430        -0.00004
      15 ->434         0.00002
      15 ->440        -0.00009
      15 ->460         0.00001
      15 ->461         0.00002
      15 ->491        -0.00001
      16 -> 51        -0.00040
      16 -> 56        -0.00011
      16 -> 75         0.00022
      16 -> 82        -0.00029
      16 -> 88        -0.00023
      16 -> 99        -0.00034
      16 ->108         0.00041
      16 ->115         0.00075
      16 ->124        -0.00012
      16 ->127        -0.00048
      16 ->131        -0.00019
      16 ->133         0.00054
      16 ->144         0.00022
      16 ->149        -0.00027
      16 ->153        -0.00032
      16 ->159        -0.00029
      16 ->167         0.00023
      16 ->172        -0.00009
      16 ->178         0.00021
      16 ->189         0.00018
      16 ->193         0.00002
      16 ->201         0.00010
      16 ->211        -0.00006
      16 ->214        -0.00017
      16 ->223        -0.00010
      16 ->228        -0.00024
      16 ->230        -0.00004
      16 ->234        -0.00005
      16 ->244        -0.00012
      16 ->254        -0.00006
      16 ->262        -0.00002
      16 ->268         0.00001
      16 ->287        -0.00001
      16 ->290        -0.00001
      16 ->317        -0.00002
      16 ->323         0.00001
      16 ->332         0.00001
      16 ->349         0.00002
      16 ->398        -0.00001
      16 ->409         0.00002
      16 ->421        -0.00003
      16 ->425         0.00012
      16 ->433        -0.00004
      16 ->438        -0.00004
      16 ->443        -0.00003
      16 ->446        -0.00001
      16 ->486         0.00002
      17 -> 54         0.00049
      17 -> 57        -0.00022
      17 -> 59        -0.00056
      17 -> 63        -0.00099
      17 -> 66         0.00005
      17 -> 68        -0.00002
      17 -> 70        -0.00160
      17 -> 73        -0.00157
      17 -> 77        -0.00020
      17 -> 80         0.00009
      17 -> 84        -0.00004
      17 -> 85        -0.00035
      17 -> 90         0.00026
      17 -> 95         0.00046
      17 -> 98        -0.00096
      17 ->101         0.00015
      17 ->103        -0.00059
      17 ->104        -0.00015
      17 ->109         0.00047
      17 ->111         0.00086
      17 ->116        -0.00022
      17 ->117        -0.00014
      17 ->118        -0.00009
      17 ->121         0.00041
      17 ->126         0.00001
      17 ->132        -0.00004
      17 ->137        -0.00026
      17 ->139        -0.00016
      17 ->142         0.00004
      17 ->146        -0.00010
      17 ->148         0.00006
      17 ->154         0.00013
      17 ->160        -0.00017
      17 ->162         0.00019
      17 ->163        -0.00005
      17 ->166         0.00043
      17 ->169        -0.00030
      17 ->174        -0.00022
      17 ->175        -0.00006
      17 ->177         0.00004
      17 ->182         0.00004
      17 ->183         0.00002
      17 ->187         0.00014
      17 ->190        -0.00010
      17 ->192         0.00001
      17 ->197        -0.00038
      17 ->202         0.00021
      17 ->204        -0.00027
      17 ->206         0.00038
      17 ->209        -0.00012
      17 ->212        -0.00044
      17 ->215        -0.00001
      17 ->222         0.00018
      17 ->229         0.00007
      17 ->231         0.00018
      17 ->236         0.00012
      17 ->242         0.00002
      17 ->245         0.00013
      17 ->246        -0.00006
      17 ->253         0.00007
      17 ->256         0.00004
      17 ->257         0.00010
      17 ->261         0.00008
      17 ->270         0.00003
      17 ->272        -0.00003
      17 ->274         0.00013
      17 ->277        -0.00004
      17 ->280        -0.00004
      17 ->285         0.00006
      17 ->289        -0.00006
      17 ->293        -0.00003
      17 ->300        -0.00005
      17 ->303         0.00006
      17 ->307         0.00006
      17 ->309         0.00004
      17 ->316        -0.00004
      17 ->324        -0.00001
      17 ->327         0.00002
      17 ->331         0.00002
      17 ->336        -0.00004
      17 ->337        -0.00001
      17 ->341        -0.00008
      17 ->344         0.00008
      17 ->348         0.00006
      17 ->351        -0.00005
      17 ->353         0.00005
      17 ->355         0.00006
      17 ->359         0.00004
      17 ->363         0.00005
      17 ->368         0.00002
      17 ->371        -0.00003
      17 ->380         0.00004
      17 ->382         0.00001
      17 ->392         0.00002
      17 ->395         0.00008
      17 ->397         0.00001
      17 ->400         0.00003
      17 ->402         0.00003
      17 ->404        -0.00004
      17 ->408         0.00006
      17 ->415        -0.00003
      17 ->419        -0.00002
      17 ->424         0.00002
      17 ->426         0.00002
      17 ->434        -0.00003
      17 ->439        -0.00001
      17 ->440         0.00002
      17 ->457        -0.00001
      17 ->460         0.00002
      17 ->463         0.00002
      17 ->466        -0.00001
      17 ->468         0.00001
      17 ->478         0.00001
      18 -> 52        -0.00088
      18 -> 55         0.00035
      18 -> 58        -0.00079
      18 -> 61        -0.00030
      18 -> 62        -0.00129
      18 -> 65        -0.00036
      18 -> 67        -0.00106
      18 -> 69         0.00036
      18 -> 71         0.00044
      18 -> 72         0.00022
      18 -> 74        -0.00032
      18 -> 78        -0.00005
      18 -> 81         0.00017
      18 -> 83        -0.00076
      18 -> 87         0.00048
      18 -> 89        -0.00135
      18 -> 93         0.00006
      18 -> 94        -0.00056
      18 -> 96         0.00015
      18 ->100        -0.00041
      18 ->102        -0.00003
      18 ->105         0.00107
      18 ->107        -0.00054
      18 ->110         0.00021
      18 ->112        -0.00102
      18 ->113        -0.00094
      18 ->120        -0.00005
      18 ->123        -0.00105
      18 ->125        -0.00039
      18 ->128         0.00003
      18 ->130         0.00046
      18 ->134        -0.00111
      18 ->136         0.00048
      18 ->138        -0.00009
      18 ->141         0.00010
      18 ->145        -0.00015
      18 ->150        -0.00001
      18 ->152        -0.00041
      18 ->155         0.00030
      18 ->157        -0.00043
      18 ->161         0.00015
      18 ->164        -0.00008
      18 ->165         0.00006
      18 ->168        -0.00013
      18 ->170         0.00010
      18 ->176        -0.00004
      18 ->181        -0.00008
      18 ->185         0.00022
      18 ->186         0.00001
      18 ->188         0.00002
      18 ->194         0.00014
      18 ->195        -0.00010
      18 ->198         0.00011
      18 ->199        -0.00001
      18 ->203        -0.00010
      18 ->207         0.00017
      18 ->210        -0.00025
      18 ->213        -0.00011
      18 ->216        -0.00009
      18 ->217         0.00002
      18 ->220        -0.00004
      18 ->226         0.00002
      18 ->232        -0.00019
      18 ->235         0.00006
      18 ->238         0.00002
      18 ->240        -0.00006
      18 ->243         0.00022
      18 ->247        -0.00002
      18 ->249         0.00004
      18 ->252         0.00019
      18 ->255         0.00004
      18 ->258        -0.00010
      18 ->260        -0.00005
      18 ->264        -0.00011
      18 ->265         0.00011
      18 ->273         0.00009
      18 ->276         0.00009
      18 ->279         0.00002
      18 ->283         0.00004
      18 ->284         0.00005
      18 ->288        -0.00009
      18 ->292        -0.00004
      18 ->297        -0.00005
      18 ->298         0.00002
      18 ->304         0.00003
      18 ->313         0.00002
      18 ->319         0.00003
      18 ->320        -0.00012
      18 ->322         0.00004
      18 ->329        -0.00006
      18 ->330         0.00003
      18 ->334         0.00002
      18 ->342         0.00002
      18 ->343        -0.00011
      18 ->345         0.00009
      18 ->350        -0.00001
      18 ->352        -0.00005
      18 ->358         0.00003
      18 ->361         0.00005
      18 ->364         0.00006
      18 ->370         0.00006
      18 ->374        -0.00003
      18 ->375        -0.00004
      18 ->381         0.00002
      18 ->386        -0.00003
      18 ->388         0.00006
      18 ->390         0.00008
      18 ->396        -0.00005
      18 ->401         0.00001
      18 ->407         0.00002
      18 ->410        -0.00005
      18 ->414         0.00004
      18 ->416        -0.00007
      18 ->427        -0.00002
      18 ->441        -0.00003
      18 ->447        -0.00003
      18 ->449         0.00002
      18 ->456         0.00001
      18 ->459         0.00002
      18 ->462         0.00002
      18 ->464         0.00001
      18 ->471        -0.00002
      18 ->475        -0.00002
      19 -> 54        -0.00025
      19 -> 57         0.00068
      19 -> 59         0.00090
      19 -> 63         0.00131
      19 -> 66        -0.00066
      19 -> 68         0.00013
      19 -> 70         0.00136
      19 -> 73         0.00051
      19 -> 77        -0.00074
      19 -> 80        -0.00075
      19 -> 84         0.00009
      19 -> 85        -0.00076
      19 -> 90        -0.00157
      19 -> 95        -0.00080
      19 -> 98         0.00030
      19 ->101         0.00208
      19 ->103         0.00079
      19 ->104        -0.00074
      19 ->109        -0.00012
      19 ->111        -0.00123
      19 ->116         0.00020
      19 ->117        -0.00058
      19 ->118        -0.00129
      19 ->121        -0.00086
      19 ->126        -0.00086
      19 ->132        -0.00060
      19 ->137        -0.00006
      19 ->139         0.00029
      19 ->142         0.00014
      19 ->146        -0.00006
      19 ->154        -0.00010
      19 ->160         0.00076
      19 ->162        -0.00042
      19 ->163         0.00008
      19 ->166         0.00050
      19 ->169         0.00006
      19 ->174        -0.00057
      19 ->175        -0.00029
      19 ->177         0.00023
      19 ->182         0.00011
      19 ->183         0.00009
      19 ->187         0.00010
      19 ->190         0.00009
      19 ->192        -0.00015
      19 ->197         0.00014
      19 ->202        -0.00024
      19 ->204        -0.00013
      19 ->206         0.00018
      19 ->209         0.00029
      19 ->212         0.00015
      19 ->215        -0.00015
      19 ->219        -0.00011
      19 ->222        -0.00014
      19 ->229        -0.00012
      19 ->231         0.00003
      19 ->236        -0.00009
      19 ->239        -0.00017
      19 ->242        -0.00007
      19 ->245         0.00010
      19 ->246         0.00019
      19 ->253        -0.00005
      19 ->256         0.00004
      19 ->257        -0.00015
      19 ->261        -0.00012
      19 ->270         0.00009
      19 ->277        -0.00003
      19 ->278         0.00016
      19 ->280        -0.00004
      19 ->285         0.00009
      19 ->289        -0.00014
      19 ->293        -0.00002
      19 ->300         0.00009
      19 ->303         0.00018
      19 ->307         0.00004
      19 ->309        -0.00008
      19 ->316         0.00004
      19 ->324         0.00002
      19 ->327        -0.00012
      19 ->331         0.00013
      19 ->336        -0.00005
      19 ->337        -0.00004
      19 ->344        -0.00004
      19 ->348         0.00004
      19 ->351        -0.00004
      19 ->353        -0.00006
      19 ->355        -0.00002
      19 ->359        -0.00003
      19 ->363         0.00007
      19 ->371        -0.00003
      19 ->380         0.00004
      19 ->382        -0.00002
      19 ->385         0.00007
      19 ->387        -0.00003
      19 ->392        -0.00002
      19 ->395        -0.00003
      19 ->397        -0.00005
      19 ->400        -0.00005
      19 ->404        -0.00005
      19 ->415         0.00006
      19 ->419         0.00002
      19 ->422         0.00005
      19 ->424         0.00003
      19 ->426        -0.00003
      19 ->440        -0.00002
      19 ->454         0.00001
      19 ->463        -0.00003
      19 ->468         0.00004
      19 ->469        -0.00002
      19 ->473         0.00001
      19 ->476         0.00003
      19 ->478         0.00003
      19 ->480         0.00001
      20 -> 54         0.00122
      20 -> 57         0.00023
      20 -> 59         0.00020
      20 -> 63         0.00191
      20 -> 66         0.00081
      20 -> 68         0.00226
      20 -> 70         0.00050
      20 -> 73         0.00146
      20 -> 77        -0.00047
      20 -> 80        -0.00007
      20 -> 84        -0.00074
      20 -> 85        -0.00090
      20 -> 90         0.00018
      20 -> 95        -0.00084
      20 -> 98         0.00074
      20 ->101        -0.00062
      20 ->103         0.00058
      20 ->104         0.00044
      20 ->109        -0.00091
      20 ->111         0.00030
      20 ->116        -0.00026
      20 ->117         0.00129
      20 ->118         0.00005
      20 ->121        -0.00045
      20 ->126         0.00007
      20 ->132        -0.00066
      20 ->137         0.00030
      20 ->142         0.00011
      20 ->146         0.00006
      20 ->148        -0.00020
      20 ->154        -0.00014
      20 ->160         0.00006
      20 ->163        -0.00035
      20 ->166        -0.00024
      20 ->169         0.00019
      20 ->174         0.00026
      20 ->175        -0.00005
      20 ->177        -0.00005
      20 ->182         0.00012
      20 ->183        -0.00013
      20 ->187        -0.00004
      20 ->190        -0.00013
      20 ->192         0.00006
      20 ->197         0.00062
      20 ->202        -0.00037
      20 ->204         0.00021
      20 ->206        -0.00016
      20 ->209         0.00016
      20 ->212         0.00004
      20 ->219         0.00012
      20 ->222        -0.00007
      20 ->229         0.00001
      20 ->231         0.00007
      20 ->236        -0.00004
      20 ->239        -0.00001
      20 ->242         0.00015
      20 ->245         0.00003
      20 ->246        -0.00019
      20 ->253         0.00001
      20 ->257         0.00013
      20 ->261        -0.00003
      20 ->270        -0.00002
      20 ->272         0.00017
      20 ->274         0.00010
      20 ->277         0.00006
      20 ->278        -0.00008
      20 ->280         0.00006
      20 ->285         0.00002
      20 ->289         0.00009
      20 ->293        -0.00004
      20 ->299         0.00006
      20 ->303         0.00014
      20 ->307        -0.00002
      20 ->309        -0.00005
      20 ->316        -0.00005
      20 ->324         0.00003
      20 ->327         0.00002
      20 ->336        -0.00002
      20 ->341        -0.00002
      20 ->344         0.00004
      20 ->348         0.00008
      20 ->351        -0.00003
      20 ->353        -0.00002
      20 ->355         0.00001
      20 ->359         0.00004
      20 ->363         0.00003
      20 ->368         0.00002
      20 ->371        -0.00003
      20 ->377        -0.00005
      20 ->380        -0.00004
      20 ->382         0.00005
      20 ->387         0.00005
      20 ->392        -0.00006
      20 ->395        -0.00005
      20 ->397        -0.00001
      20 ->400        -0.00004
      20 ->404         0.00004
      20 ->408         0.00001
      20 ->413        -0.00003
      20 ->415        -0.00004
      20 ->419        -0.00001
      20 ->424         0.00001
      20 ->439         0.00003
      20 ->440        -0.00002
      20 ->454         0.00002
      20 ->457        -0.00001
      20 ->461        -0.00003
      20 ->463         0.00002
      20 ->466         0.00001
      20 ->469        -0.00001
      20 ->473         0.00001
      20 ->510         0.00001
      20 ->512         0.00001
      21 -> 55         0.00036
      21 -> 58         0.00147
      21 -> 61         0.00084
      21 -> 62        -0.00003
      21 -> 65         0.00185
      21 -> 67         0.00077
      21 -> 69        -0.00189
      21 -> 71        -0.00244
      21 -> 72         0.00079
      21 -> 74        -0.00040
      21 -> 78         0.00028
      21 -> 81        -0.00027
      21 -> 83        -0.00011
      21 -> 87        -0.00003
      21 -> 89         0.00161
      21 -> 93         0.00039
      21 -> 94        -0.00057
      21 -> 96        -0.00148
      21 ->100         0.00043
      21 ->102         0.00049
      21 ->105        -0.00066
      21 ->107         0.00008
      21 ->110        -0.00018
      21 ->112        -0.00001
      21 ->113         0.00112
      21 ->120         0.00011
      21 ->123         0.00101
      21 ->125         0.00022
      21 ->128         0.00058
      21 ->130        -0.00020
      21 ->134         0.00074
      21 ->136        -0.00010
      21 ->138         0.00022
      21 ->141         0.00029
      21 ->145         0.00021
      21 ->150        -0.00005
      21 ->152         0.00061
      21 ->155        -0.00024
      21 ->157         0.00031
      21 ->161        -0.00013
      21 ->164        -0.00007
      21 ->165         0.00020
      21 ->168         0.00049
      21 ->170        -0.00038
      21 ->176         0.00008
      21 ->179        -0.00006
      21 ->181         0.00012
      21 ->185        -0.00001
      21 ->186         0.00002
      21 ->188         0.00020
      21 ->194        -0.00025
      21 ->195        -0.00004
      21 ->198        -0.00047
      21 ->199        -0.00007
      21 ->203         0.00003
      21 ->205         0.00002
      21 ->210         0.00006
      21 ->213         0.00003
      21 ->216        -0.00005
      21 ->220        -0.00010
      21 ->226        -0.00008
      21 ->232         0.00003
      21 ->235         0.00004
      21 ->238        -0.00013
      21 ->243         0.00016
      21 ->247        -0.00017
      21 ->249         0.00003
      21 ->252        -0.00005
      21 ->255         0.00004
      21 ->258         0.00004
      21 ->260        -0.00006
      21 ->264         0.00010
      21 ->265         0.00019
      21 ->273         0.00006
      21 ->276         0.00006
      21 ->279         0.00003
      21 ->283        -0.00004
      21 ->288         0.00012
      21 ->292         0.00019
      21 ->297         0.00015
      21 ->298        -0.00005
      21 ->304        -0.00003
      21 ->310         0.00006
      21 ->312         0.00006
      21 ->313        -0.00004
      21 ->319         0.00004
      21 ->320         0.00001
      21 ->322         0.00002
      21 ->329         0.00004
      21 ->330         0.00002
      21 ->343        -0.00007
      21 ->350        -0.00005
      21 ->352        -0.00002
      21 ->356        -0.00002
      21 ->361        -0.00003
      21 ->364        -0.00005
      21 ->370         0.00001
      21 ->374         0.00003
      21 ->381         0.00004
      21 ->384         0.00002
      21 ->386        -0.00004
      21 ->388        -0.00003
      21 ->390        -0.00008
      21 ->393        -0.00006
      21 ->396         0.00004
      21 ->403        -0.00002
      21 ->405        -0.00002
      21 ->410        -0.00005
      21 ->414         0.00003
      21 ->416        -0.00002
      21 ->427         0.00002
      21 ->435         0.00002
      21 ->437        -0.00002
      21 ->441         0.00002
      21 ->449         0.00001
      21 ->458        -0.00002
      21 ->462         0.00002
      21 ->467         0.00002
      21 ->475        -0.00002
      22 -> 52        -0.00032
      22 -> 55        -0.00305
      22 -> 58         0.00271
      22 -> 61        -0.00027
      22 -> 62        -0.00038
      22 -> 65        -0.00063
      22 -> 67         0.00154
      22 -> 69         0.00167
      22 -> 71         0.00185
      22 -> 72        -0.00060
      22 -> 74        -0.00205
      22 -> 78        -0.00183
      22 -> 81         0.00174
      22 -> 83        -0.00019
      22 -> 87        -0.00040
      22 -> 89        -0.00037
      22 -> 93        -0.00038
      22 -> 94        -0.00097
      22 -> 96         0.00139
      22 ->100        -0.00059
      22 ->102         0.00245
      22 ->105        -0.00053
      22 ->107         0.00010
      22 ->110        -0.00114
      22 ->112        -0.00022
      22 ->113         0.00019
      22 ->120        -0.00026
      22 ->123        -0.00024
      22 ->125        -0.00051
      22 ->128         0.00007
      22 ->130        -0.00071
      22 ->134        -0.00115
      22 ->136         0.00075
      22 ->138         0.00049
      22 ->141         0.00014
      22 ->145        -0.00015
      22 ->150        -0.00031
      22 ->152         0.00024
      22 ->155         0.00033
      22 ->157         0.00002
      22 ->161         0.00038
      22 ->164        -0.00070
      22 ->165        -0.00007
      22 ->168        -0.00001
      22 ->170        -0.00017
      22 ->176        -0.00006
      22 ->179         0.00022
      22 ->181         0.00015
      22 ->185         0.00017
      22 ->186        -0.00004
      22 ->188        -0.00051
      22 ->194        -0.00025
      22 ->195        -0.00060
      22 ->198        -0.00015
      22 ->199        -0.00035
      22 ->203         0.00013
      22 ->205         0.00009
      22 ->207        -0.00028
      22 ->210         0.00006
      22 ->213        -0.00014
      22 ->216         0.00019
      22 ->217         0.00002
      22 ->220        -0.00011
      22 ->226         0.00002
      22 ->232         0.00010
      22 ->235        -0.00010
      22 ->238         0.00002
      22 ->243        -0.00006
      22 ->247         0.00009
      22 ->249         0.00018
      22 ->252        -0.00004
      22 ->255        -0.00015
      22 ->258         0.00023
      22 ->260        -0.00012
      22 ->264         0.00009
      22 ->273         0.00009
      22 ->276         0.00005
      22 ->279        -0.00011
      22 ->283         0.00013
      22 ->284         0.00016
      22 ->288         0.00001
      22 ->298         0.00007
      22 ->304         0.00006
      22 ->308        -0.00015
      22 ->310         0.00003
      22 ->319        -0.00004
      22 ->320        -0.00004
      22 ->322         0.00004
      22 ->329         0.00006
      22 ->330         0.00003
      22 ->334        -0.00003
      22 ->339        -0.00001
      22 ->342         0.00016
      22 ->343         0.00005
      22 ->345        -0.00004
      22 ->350         0.00002
      22 ->352        -0.00006
      22 ->356         0.00011
      22 ->358        -0.00007
      22 ->361         0.00002
      22 ->364         0.00005
      22 ->374         0.00002
      22 ->375         0.00004
      22 ->384         0.00002
      22 ->386        -0.00006
      22 ->388        -0.00008
      22 ->390         0.00005
      22 ->396         0.00001
      22 ->401        -0.00003
      22 ->403        -0.00001
      22 ->405         0.00007
      22 ->410        -0.00003
      22 ->414         0.00007
      22 ->416         0.00002
      22 ->427         0.00007
      22 ->431         0.00001
      22 ->435         0.00002
      22 ->441         0.00003
      22 ->447        -0.00004
      22 ->449         0.00003
      22 ->455         0.00001
      22 ->458        -0.00002
      22 ->462        -0.00002
      22 ->464         0.00003
      22 ->470        -0.00001
      22 ->472         0.00003
      22 ->475        -0.00004
      22 ->477         0.00002
      22 ->479        -0.00001
      22 ->513        -0.00001
      23 -> 54         0.00260
      23 -> 57        -0.00395
      23 -> 59        -0.00420
      23 -> 63         0.00032
      23 -> 66        -0.00098
      23 -> 68        -0.00160
      23 -> 70        -0.00034
      23 -> 73         0.00057
      23 -> 77        -0.00221
      23 -> 80        -0.00083
      23 -> 84        -0.00409
      23 -> 85        -0.00232
      23 -> 90        -0.00224
      23 -> 95         0.00085
      23 -> 98        -0.00180
      23 ->101         0.00054
      23 ->103        -0.00221
      23 ->104        -0.00073
      23 ->109         0.00044
      23 ->111        -0.00027
      23 ->116        -0.00111
      23 ->117        -0.00014
      23 ->118        -0.00134
      23 ->121        -0.00077
      23 ->126         0.00024
      23 ->132        -0.00092
      23 ->137         0.00012
      23 ->139         0.00051
      23 ->142        -0.00031
      23 ->146         0.00022
      23 ->148         0.00118
      23 ->154        -0.00032
      23 ->160         0.00075
      23 ->162        -0.00048
      23 ->163         0.00017
      23 ->166        -0.00043
      23 ->169         0.00010
      23 ->174         0.00028
      23 ->175         0.00013
      23 ->177        -0.00010
      23 ->183        -0.00028
      23 ->187        -0.00034
      23 ->190        -0.00044
      23 ->192        -0.00010
      23 ->197         0.00013
      23 ->202         0.00018
      23 ->204         0.00007
      23 ->206        -0.00010
      23 ->209         0.00038
      23 ->212        -0.00002
      23 ->215         0.00030
      23 ->219        -0.00010
      23 ->222         0.00002
      23 ->229        -0.00006
      23 ->231         0.00004
      23 ->236        -0.00003
      23 ->239         0.00007
      23 ->242        -0.00002
      23 ->245        -0.00006
      23 ->246        -0.00017
      23 ->253        -0.00003
      23 ->256         0.00009
      23 ->261         0.00010
      23 ->270         0.00009
      23 ->272        -0.00001
      23 ->274         0.00008
      23 ->277         0.00011
      23 ->278         0.00012
      23 ->280        -0.00021
      23 ->285         0.00002
      23 ->289        -0.00001
      23 ->293        -0.00009
      23 ->299        -0.00004
      23 ->300        -0.00004
      23 ->303        -0.00002
      23 ->307        -0.00002
      23 ->309        -0.00006
      23 ->316        -0.00002
      23 ->324        -0.00007
      23 ->327        -0.00006
      23 ->331         0.00001
      23 ->336         0.00004
      23 ->337        -0.00013
      23 ->341         0.00006
      23 ->344         0.00007
      23 ->348         0.00011
      23 ->351         0.00004
      23 ->353         0.00004
      23 ->355        -0.00008
      23 ->363         0.00004
      23 ->368         0.00003
      23 ->377         0.00006
      23 ->385        -0.00001
      23 ->387        -0.00007
      23 ->392        -0.00005
      23 ->395         0.00001
      23 ->397        -0.00001
      23 ->400         0.00002
      23 ->402        -0.00003
      23 ->413        -0.00004
      23 ->415        -0.00001
      23 ->419        -0.00005
      23 ->422        -0.00006
      23 ->426         0.00004
      23 ->430        -0.00002
      23 ->439        -0.00002
      23 ->448        -0.00003
      23 ->457         0.00001
      23 ->461        -0.00004
      23 ->469         0.00002
      23 ->515         0.00001
      24 -> 54         0.00303
      24 -> 57        -0.00226
      24 -> 59         0.00333
      24 -> 63        -0.00112
      24 -> 66        -0.00020
      24 -> 68        -0.00157
      24 -> 70         0.00085
      24 -> 73        -0.00160
      24 -> 77         0.00046
      24 -> 80        -0.00271
      24 -> 84        -0.00135
      24 -> 85         0.00336
      24 -> 90        -0.00286
      24 -> 95        -0.00112
      24 -> 98        -0.00050
      24 ->101        -0.00037
      24 ->103         0.00104
      24 ->109         0.00015
      24 ->111        -0.00233
      24 ->116         0.00144
      24 ->117        -0.00041
      24 ->118        -0.00010
      24 ->121         0.00072
      24 ->126        -0.00100
      24 ->132         0.00024
      24 ->137        -0.00066
      24 ->139         0.00012
      24 ->142         0.00003
      24 ->146        -0.00015
      24 ->148         0.00030
      24 ->154         0.00002
      24 ->160         0.00051
      24 ->162         0.00011
      24 ->163        -0.00040
      24 ->166         0.00072
      24 ->169        -0.00020
      24 ->174         0.00002
      24 ->175        -0.00008
      24 ->177        -0.00029
      24 ->182        -0.00007
      24 ->183        -0.00047
      24 ->187        -0.00034
      24 ->190         0.00006
      24 ->192        -0.00004
      24 ->197        -0.00014
      24 ->202         0.00022
      24 ->204        -0.00038
      24 ->206         0.00025
      24 ->212         0.00008
      24 ->215        -0.00007
      24 ->219         0.00016
      24 ->222        -0.00022
      24 ->229         0.00006
      24 ->231        -0.00016
      24 ->236         0.00006
      24 ->239        -0.00011
      24 ->242         0.00007
      24 ->245         0.00008
      24 ->246         0.00003
      24 ->253         0.00005
      24 ->256         0.00006
      24 ->257        -0.00008
      24 ->261         0.00006
      24 ->270        -0.00010
      24 ->272        -0.00006
      24 ->277         0.00009
      24 ->278         0.00013
      24 ->280         0.00003
      24 ->285         0.00007
      24 ->289         0.00003
      24 ->293        -0.00014
      24 ->299         0.00010
      24 ->300         0.00013
      24 ->303        -0.00007
      24 ->307        -0.00007
      24 ->309        -0.00015
      24 ->316        -0.00002
      24 ->324         0.00002
      24 ->327        -0.00002
      24 ->331        -0.00001
      24 ->336        -0.00003
      24 ->337         0.00003
      24 ->341         0.00010
      24 ->344         0.00005
      24 ->348         0.00003
      24 ->351         0.00008
      24 ->353        -0.00004
      24 ->359        -0.00004
      24 ->363        -0.00002
      24 ->371        -0.00003
      24 ->377        -0.00004
      24 ->382         0.00006
      24 ->385        -0.00003
      24 ->387        -0.00005
      24 ->395        -0.00003
      24 ->397        -0.00008
      24 ->400         0.00002
      24 ->404         0.00004
      24 ->408        -0.00001
      24 ->413         0.00001
      24 ->415         0.00009
      24 ->422         0.00004
      24 ->424         0.00002
      24 ->426        -0.00003
      24 ->430         0.00001
      24 ->434         0.00002
      24 ->440         0.00001
      24 ->448        -0.00003
      24 ->457         0.00003
      24 ->460         0.00002
      24 ->461         0.00002
      24 ->463        -0.00001
      24 ->466         0.00005
      24 ->473        -0.00002
      24 ->474        -0.00002
      24 ->476        -0.00003
      24 ->491        -0.00002
      25 -> 54         0.00428
      25 -> 57         0.00117
      25 -> 59        -0.00252
      25 -> 63        -0.00121
      25 -> 66        -0.00110
      25 -> 68        -0.00150
      25 -> 70         0.00230
      25 -> 73        -0.00482
      25 -> 77        -0.00224
      25 -> 80        -0.00062
      25 -> 84        -0.00021
      25 -> 85        -0.00004
      25 -> 90        -0.00039
      25 -> 95         0.00148
      25 -> 98         0.00036
      25 ->101         0.00006
      25 ->103         0.00112
      25 ->104        -0.00071
      25 ->109        -0.00084
      25 ->111         0.00151
      25 ->116         0.00032
      25 ->117         0.00038
      25 ->118        -0.00064
      25 ->121         0.00046
      25 ->126        -0.00040
      25 ->132         0.00037
      25 ->137         0.00043
      25 ->139        -0.00028
      25 ->142         0.00057
      25 ->146         0.00052
      25 ->148         0.00009
      25 ->154         0.00031
      25 ->160        -0.00046
      25 ->162        -0.00061
      25 ->163         0.00002
      25 ->166        -0.00022
      25 ->169         0.00020
      25 ->174        -0.00030
      25 ->175         0.00025
      25 ->177        -0.00007
      25 ->182        -0.00026
      25 ->183         0.00045
      25 ->187         0.00027
      25 ->190        -0.00018
      25 ->197         0.00024
      25 ->202         0.00064
      25 ->204        -0.00020
      25 ->206        -0.00028
      25 ->209         0.00022
      25 ->212        -0.00006
      25 ->215        -0.00008
      25 ->219        -0.00002
      25 ->222         0.00006
      25 ->229         0.00005
      25 ->231         0.00002
      25 ->236        -0.00006
      25 ->239        -0.00011
      25 ->242        -0.00016
      25 ->245        -0.00006
      25 ->246         0.00003
      25 ->253        -0.00013
      25 ->256        -0.00010
      25 ->257         0.00009
      25 ->261         0.00012
      25 ->272        -0.00005
      25 ->274        -0.00017
      25 ->278        -0.00005
      25 ->280         0.00008
      25 ->285        -0.00004
      25 ->289        -0.00005
      25 ->293         0.00001
      25 ->299         0.00002
      25 ->300        -0.00003
      25 ->303        -0.00004
      25 ->307         0.00003
      25 ->309        -0.00003
      25 ->316         0.00009
      25 ->324         0.00004
      25 ->327        -0.00007
      25 ->331        -0.00003
      25 ->337         0.00007
      25 ->341        -0.00001
      25 ->344        -0.00006
      25 ->351         0.00003
      25 ->353         0.00004
      25 ->355        -0.00003
      25 ->363         0.00003
      25 ->368        -0.00002
      25 ->377         0.00001
      25 ->382        -0.00006
      25 ->385        -0.00002
      25 ->392        -0.00004
      25 ->395         0.00002
      25 ->404        -0.00002
      25 ->413        -0.00002
      25 ->415         0.00002
      25 ->419        -0.00002
      25 ->422        -0.00005
      25 ->426        -0.00002
      25 ->430         0.00002
      25 ->434         0.00003
      25 ->440         0.00003
      25 ->457         0.00001
      25 ->460         0.00003
      25 ->463         0.00003
      25 ->466        -0.00002
      25 ->469         0.00002
      25 ->473        -0.00002
      25 ->474        -0.00002
      25 ->476        -0.00001
      25 ->478        -0.00002
      25 ->491        -0.00002
      26 -> 52        -0.00131
      26 -> 55         0.00119
      26 -> 58        -0.00049
      26 -> 61         0.00549
      26 -> 62         0.00013
      26 -> 65         0.00161
      26 -> 67         0.00312
      26 -> 69        -0.00325
      26 -> 71        -0.00203
      26 -> 72        -0.00386
      26 -> 74         0.00179
      26 -> 78         0.00017
      26 -> 81        -0.00183
      26 -> 83        -0.00223
      26 -> 87         0.00073
      26 -> 89        -0.00145
      26 -> 93        -0.00122
      26 -> 94        -0.00134
      26 -> 96         0.00020
      26 ->100        -0.00218
      26 ->102         0.00098
      26 ->105         0.00063
      26 ->107         0.00064
      26 ->110        -0.00076
      26 ->112        -0.00040
      26 ->113        -0.00078
      26 ->120         0.00087
      26 ->123        -0.00064
      26 ->125         0.00028
      26 ->128        -0.00029
      26 ->130        -0.00035
      26 ->134         0.00046
      26 ->136        -0.00028
      26 ->138        -0.00071
      26 ->141         0.00012
      26 ->145        -0.00044
      26 ->150         0.00083
      26 ->152         0.00029
      26 ->155         0.00030
      26 ->157        -0.00079
      26 ->161         0.00035
      26 ->164        -0.00012
      26 ->165         0.00019
      26 ->168        -0.00017
      26 ->170         0.00026
      26 ->176        -0.00038
      26 ->179         0.00052
      26 ->181        -0.00017
      26 ->185        -0.00008
      26 ->186         0.00022
      26 ->188        -0.00038
      26 ->194         0.00044
      26 ->195         0.00007
      26 ->198         0.00003
      26 ->199         0.00025
      26 ->203        -0.00002
      26 ->205         0.00018
      26 ->207         0.00047
      26 ->213         0.00008
      26 ->216         0.00019
      26 ->217        -0.00017
      26 ->220         0.00006
      26 ->226         0.00008
      26 ->232         0.00004
      26 ->235         0.00002
      26 ->238         0.00005
      26 ->243        -0.00017
      26 ->247        -0.00001
      26 ->249         0.00007
      26 ->252        -0.00004
      26 ->255         0.00013
      26 ->258         0.00010
      26 ->260         0.00002
      26 ->264        -0.00004
      26 ->265        -0.00020
      26 ->273        -0.00006
      26 ->276         0.00008
      26 ->279        -0.00004
      26 ->283        -0.00005
      26 ->284        -0.00013
      26 ->288         0.00011
      26 ->292        -0.00005
      26 ->297        -0.00004
      26 ->298         0.00006
      26 ->304        -0.00006
      26 ->308         0.00005
      26 ->310        -0.00007
      26 ->312         0.00012
      26 ->313        -0.00001
      26 ->319        -0.00005
      26 ->320         0.00008
      26 ->329        -0.00006
      26 ->330        -0.00008
      26 ->334         0.00008
      26 ->342         0.00006
      26 ->343         0.00004
      26 ->345         0.00001
      26 ->350         0.00002
      26 ->352        -0.00005
      26 ->356        -0.00001
      26 ->358         0.00005
      26 ->361        -0.00001
      26 ->364         0.00009
      26 ->374         0.00004
      26 ->375        -0.00001
      26 ->381        -0.00002
      26 ->386         0.00001
      26 ->388         0.00003
      26 ->390         0.00002
      26 ->393         0.00003
      26 ->396        -0.00003
      26 ->401        -0.00004
      26 ->403        -0.00002
      26 ->405        -0.00002
      26 ->407        -0.00001
      26 ->410         0.00003
      26 ->414        -0.00004
      26 ->416         0.00002
      26 ->427        -0.00004
      26 ->435        -0.00004
      26 ->437         0.00001
      26 ->447         0.00001
      26 ->449        -0.00002
      26 ->456        -0.00001
      26 ->459         0.00002
      26 ->462         0.00003
      26 ->464         0.00003
      26 ->467        -0.00002
      26 ->471        -0.00003
      26 ->472        -0.00001
      26 ->475         0.00003
      26 ->477        -0.00002
      27 -> 52         0.00011
      27 -> 55         0.00506
      27 -> 58        -0.00820
      27 -> 61         0.00222
      27 -> 62         0.00144
      27 -> 65         0.00100
      27 -> 67        -0.00304
      27 -> 69         0.00122
      27 -> 71        -0.00331
      27 -> 72         0.00072
      27 -> 74         0.00435
      27 -> 78         0.00141
      27 -> 81        -0.00308
      27 -> 83         0.00298
      27 -> 87        -0.00009
      27 -> 89        -0.00092
      27 -> 93         0.00213
      27 -> 94         0.00044
      27 -> 96        -0.00150
      27 ->100        -0.00117
      27 ->102        -0.00191
      27 ->105        -0.00078
      27 ->107        -0.00057
      27 ->110         0.00071
      27 ->112        -0.00001
      27 ->113        -0.00009
      27 ->120         0.00051
      27 ->123         0.00278
      27 ->125         0.00049
      27 ->128         0.00088
      27 ->130         0.00018
      27 ->134         0.00041
      27 ->136         0.00067
      27 ->138         0.00013
      27 ->141         0.00095
      27 ->145         0.00030
      27 ->150         0.00035
      27 ->152         0.00047
      27 ->155         0.00017
      27 ->157        -0.00009
      27 ->161         0.00046
      27 ->164        -0.00004
      27 ->165         0.00011
      27 ->168        -0.00058
      27 ->170        -0.00019
      27 ->176         0.00012
      27 ->179        -0.00002
      27 ->181         0.00050
      27 ->185        -0.00008
      27 ->186        -0.00002
      27 ->188        -0.00003
      27 ->194         0.00032
      27 ->195        -0.00013
      27 ->198        -0.00015
      27 ->199        -0.00055
      27 ->203         0.00028
      27 ->205         0.00013
      27 ->207         0.00052
      27 ->210         0.00012
      27 ->213         0.00012
      27 ->216        -0.00019
      27 ->220         0.00016
      27 ->226         0.00005
      27 ->232         0.00007
      27 ->235        -0.00009
      27 ->238         0.00008
      27 ->240        -0.00012
      27 ->243         0.00001
      27 ->247        -0.00013
      27 ->249         0.00015
      27 ->252        -0.00014
      27 ->255        -0.00008
      27 ->258         0.00007
      27 ->260        -0.00002
      27 ->264         0.00023
      27 ->265         0.00017
      27 ->276        -0.00014
      27 ->279         0.00003
      27 ->283         0.00014
      27 ->284         0.00029
      27 ->288        -0.00016
      27 ->292        -0.00002
      27 ->297         0.00002
      27 ->298        -0.00005
      27 ->304         0.00005
      27 ->308        -0.00003
      27 ->310         0.00002
      27 ->312         0.00005
      27 ->313        -0.00005
      27 ->319        -0.00012
      27 ->320        -0.00002
      27 ->322         0.00015
      27 ->329         0.00003
      27 ->334        -0.00002
      27 ->339        -0.00012
      27 ->342        -0.00002
      27 ->350         0.00002
      27 ->352        -0.00002
      27 ->356         0.00008
      27 ->358        -0.00002
      27 ->361        -0.00005
      27 ->364        -0.00002
      27 ->370         0.00003
      27 ->374        -0.00004
      27 ->381        -0.00005
      27 ->384         0.00005
      27 ->386        -0.00003
      27 ->388        -0.00005
      27 ->390        -0.00007
      27 ->396        -0.00007
      27 ->401        -0.00001
      27 ->405         0.00002
      27 ->407        -0.00004
      27 ->410        -0.00003
      27 ->414        -0.00002
      27 ->416        -0.00004
      27 ->427        -0.00003
      27 ->431        -0.00003
      27 ->441        -0.00002
      27 ->447        -0.00003
      27 ->449         0.00002
      27 ->455         0.00001
      27 ->456         0.00003
      27 ->458         0.00003
      27 ->459         0.00001
      27 ->464         0.00002
      27 ->470         0.00002
      27 ->471        -0.00002
      27 ->475        -0.00003
      27 ->514         0.00001
      28 -> 52         0.00412
      28 -> 55        -0.00848
      28 -> 58        -0.00341
      28 -> 61         0.00359
      28 -> 62        -0.00021
      28 -> 65         0.00310
      28 -> 67        -0.00562
      28 -> 69        -0.01028
      28 -> 71        -0.01080
      28 -> 72         0.00212
      28 -> 74         0.00391
      28 -> 78         0.00004
      28 -> 81         0.00390
      28 -> 83        -0.00070
      28 -> 87        -0.00134
      28 -> 89         0.00304
      28 -> 93         0.00324
      28 -> 94        -0.00149
      28 -> 96        -0.00029
      28 ->100        -0.00032
      28 ->102        -0.00055
      28 ->105        -0.00027
      28 ->107         0.00029
      28 ->110         0.00143
      28 ->112         0.00063
      28 ->113         0.00003
      28 ->120         0.00003
      28 ->123        -0.00036
      28 ->125         0.00093
      28 ->128        -0.00029
      28 ->134         0.00137
      28 ->136        -0.00091
      28 ->138        -0.00008
      28 ->141         0.00008
      28 ->145         0.00056
      28 ->150        -0.00034
      28 ->152         0.00021
      28 ->155        -0.00044
      28 ->157         0.00006
      28 ->161        -0.00013
      28 ->165        -0.00024
      28 ->168         0.00004
      28 ->170        -0.00025
      28 ->176        -0.00017
      28 ->179         0.00013
      28 ->181        -0.00003
[...]
      49 <-237        -0.00007
      49 <-241        -0.00012
      49 <-250        -0.00002
      49 <-251         0.00019
      49 <-259        -0.00027
      49 <-263        -0.00009
      49 <-267         0.00013
      49 <-269        -0.00008
      49 <-275        -0.00018
      49 <-281        -0.00015
      49 <-286         0.00014
      49 <-291        -0.00009
      49 <-294         0.00018
      49 <-296         0.00009
      49 <-301        -0.00010
      49 <-311        -0.00006
      49 <-318        -0.00007
      49 <-325        -0.00009
      49 <-326         0.00002
      49 <-333        -0.00006
      49 <-335         0.00015
      49 <-338        -0.00006
      49 <-347        -0.00006
      49 <-357         0.00010
      49 <-360         0.00003
      49 <-372         0.00003
      49 <-376         0.00005
      49 <-378        -0.00002
      49 <-394         0.00011
      49 <-399        -0.00002
      49 <-412        -0.00007
      49 <-417         0.00004
      49 <-423         0.00006
      49 <-428        -0.00002
      49 <-432        -0.00001
      49 <-442         0.00003
      49 <-445        -0.00003
      49 <-451        -0.00002
      49 <-452        -0.00001
 This state for optimization and/or second-order correction.
 Total Energy, E(TD-HF/TD-KS) =  -681.205052469    
 Copying the excited state density for this state as the 1-particle RhoCI density.
 SavETr:  write IOETrn=   770 NScale= 10 NData=  16 NLR=1 NState=    1 LETran=      28.
 Leave Link  914 at Wed Mar  2 16:57:30 2016, MaxMem=  2621440000 cpu:      6339.0
 (Enter /cm/shared/apps/gaussian/g09D01/g09/l601.exe)
 Copying SCF densities to generalized density rwf, IOpCl= 0 IROHF=0.

 **********************************************************************

   Populations using transition density between ground and state  1.

 **********************************************************************

 Alpha  occ. eigenvalues --  -24.69662 -24.69661 -14.43392 -14.43392 -10.31521
 Alpha  occ. eigenvalues --  -10.30682 -10.30682 -10.30057 -10.30055 -10.27645
 Alpha  occ. eigenvalues --  -10.27645 -10.26161 -10.26161  -6.89637  -1.24175
 Alpha  occ. eigenvalues --   -1.20949  -1.08683  -1.06936  -0.91138  -0.88468
 Alpha  occ. eigenvalues --   -0.87210  -0.81978  -0.75797  -0.69296  -0.67757
 Alpha  occ. eigenvalues --   -0.66478  -0.66387  -0.62504  -0.59143  -0.57753
 Alpha  occ. eigenvalues --   -0.55343  -0.53663  -0.52692  -0.51230  -0.50936
 Alpha  occ. eigenvalues --   -0.50610  -0.50118  -0.48303  -0.47559  -0.47354
 Alpha  occ. eigenvalues --   -0.46445  -0.44170  -0.43657  -0.42497  -0.41170
 Alpha  occ. eigenvalues --   -0.37567  -0.33639  -0.32884  -0.27435
 Alpha virt. eigenvalues --   -0.08035   0.06235   0.07126   0.07811   0.09056
 Alpha virt. eigenvalues --    0.09610   0.10021   0.11450   0.12195   0.13114
 Alpha virt. eigenvalues --    0.13860   0.14025   0.17826   0.19484   0.19787
 Alpha virt. eigenvalues --    0.19797   0.21856   0.22116   0.23842   0.24409
 Alpha virt. eigenvalues --    0.24721   0.28343   0.31531   0.31628   0.31729
 Alpha virt. eigenvalues --    0.31975   0.32018   0.33960   0.34660   0.35753
 Alpha virt. eigenvalues --    0.37124   0.37171   0.37692   0.39904   0.40428
 Alpha virt. eigenvalues --    0.41012   0.41130   0.41197   0.42459   0.42528
 Alpha virt. eigenvalues --    0.42652   0.43508   0.43774   0.44253   0.45295
 Alpha virt. eigenvalues --    0.45904   0.48620   0.48684   0.48984   0.49319
 Alpha virt. eigenvalues --    0.49679   0.50737   0.51321   0.52192   0.54403
 Alpha virt. eigenvalues --    0.54651   0.55480   0.55761   0.57428   0.58321
 Alpha virt. eigenvalues --    0.60544   0.61412   0.62587   0.65670   0.65848
 Alpha virt. eigenvalues --    0.66874   0.67802   0.67952   0.69962   0.70335
 Alpha virt. eigenvalues --    0.70397   0.70831   0.71397   0.72443   0.74215
 Alpha virt. eigenvalues --    0.74637   0.75879   0.76298   0.78477   0.78818
 Alpha virt. eigenvalues --    0.80869   0.82764   0.82805   0.83746   0.85284
 Alpha virt. eigenvalues --    0.85436   0.88487   0.89995   0.92348   0.92964
 Alpha virt. eigenvalues --    0.95098   0.95182   0.95360   0.96516   0.96707
 Alpha virt. eigenvalues --    0.97674   0.98098   0.99556   1.01228   1.02733
 Alpha virt. eigenvalues --    1.03435   1.03655   1.04101   1.05324   1.06281
 Alpha virt. eigenvalues --    1.07467   1.07486   1.09390   1.09806   1.10492
 Alpha virt. eigenvalues --    1.10636   1.11449   1.12829   1.17916   1.17931
 Alpha virt. eigenvalues --    1.18142   1.20003   1.20870   1.21710   1.22736
 Alpha virt. eigenvalues --    1.24240   1.25143   1.25352   1.26960   1.27118
 Alpha virt. eigenvalues --    1.28111   1.28220   1.30257   1.31512   1.32448
 Alpha virt. eigenvalues --    1.33821   1.34527   1.35228   1.36928   1.37110
 Alpha virt. eigenvalues --    1.37384   1.38606   1.40808   1.42503   1.42647
 Alpha virt. eigenvalues --    1.47440   1.47659   1.50550   1.51412   1.52247
 Alpha virt. eigenvalues --    1.53441   1.54138   1.54181   1.57206   1.60284
 Alpha virt. eigenvalues --    1.65129   1.65848   1.66566   1.68063   1.68734
 Alpha virt. eigenvalues --    1.70114   1.72107   1.72346   1.72555   1.75282
 Alpha virt. eigenvalues --    1.78825   1.80441   1.82607   1.87269   1.89155
 Alpha virt. eigenvalues --    1.89177   1.89218   1.92610   1.94412   1.95470
 Alpha virt. eigenvalues --    1.99896   2.02803   2.03836   2.05690   2.06803
 Alpha virt. eigenvalues --    2.09836   2.10043   2.11941   2.12097   2.12866
 Alpha virt. eigenvalues --    2.14139   2.17960   2.19624   2.25364   2.25390
 Alpha virt. eigenvalues --    2.25766   2.30006   2.31823   2.32542   2.33816
 Alpha virt. eigenvalues --    2.36276   2.37393   2.37716   2.38171   2.40821
 Alpha virt. eigenvalues --    2.41635   2.42104   2.42852   2.44399   2.47289
 Alpha virt. eigenvalues --    2.48004   2.50067   2.50171   2.50240   2.50585
 Alpha virt. eigenvalues --    2.50760   2.50975   2.53148   2.55186   2.58062
 Alpha virt. eigenvalues --    2.59480   2.62245   2.65517   2.66042   2.66730
 Alpha virt. eigenvalues --    2.67994   2.70022   2.70239   2.72215   2.74305
 Alpha virt. eigenvalues --    2.76056   2.78520   2.79166   2.80749   2.82248
 Alpha virt. eigenvalues --    2.84016   2.84698   2.85377   2.85693   2.87062
 Alpha virt. eigenvalues --    2.89228   2.91846   2.92758   2.94206   2.95722
 Alpha virt. eigenvalues --    2.95883   2.96616   2.97506   2.98298   2.98515
 Alpha virt. eigenvalues --    2.99050   2.99647   2.99665   3.00954   3.02529
 Alpha virt. eigenvalues --    3.02658   3.03157   3.04617   3.06443   3.06751
 Alpha virt. eigenvalues --    3.07553   3.07851   3.09473   3.10928   3.11445
 Alpha virt. eigenvalues --    3.12865   3.12936   3.13273   3.14828   3.15470
 Alpha virt. eigenvalues --    3.15820   3.16408   3.16751   3.17600   3.22141
 Alpha virt. eigenvalues --    3.22311   3.23430   3.23717   3.23978   3.24020
 Alpha virt. eigenvalues --    3.24749   3.25323   3.26612   3.27785   3.27823
 Alpha virt. eigenvalues --    3.28710   3.30266   3.30664   3.31087   3.35158
 Alpha virt. eigenvalues --    3.37110   3.37210   3.38940   3.40082   3.40581
 Alpha virt. eigenvalues --    3.42113   3.42737   3.43812   3.46530   3.46577
 Alpha virt. eigenvalues --    3.46688   3.47688   3.49432   3.51879   3.55235
 Alpha virt. eigenvalues --    3.56334   3.57634   3.58527   3.59975   3.61523
 Alpha virt. eigenvalues --    3.61765   3.63014   3.65382   3.67904   3.69625
 Alpha virt. eigenvalues --    3.70166   3.71170   3.73833   3.74500   3.74542
 Alpha virt. eigenvalues --    3.76775   3.79239   3.80858   3.82445   3.82919
 Alpha virt. eigenvalues --    3.83544   3.84520   3.86549   3.87216   3.90231
 Alpha virt. eigenvalues --    3.90810   3.91100   3.92871   3.94718   3.95010
 Alpha virt. eigenvalues --    3.96886   4.00055   4.01279   4.03919   4.05161
 Alpha virt. eigenvalues --    4.05213   4.07806   4.11764   4.14032   4.14046
 Alpha virt. eigenvalues --    4.15681   4.16168   4.17411   4.20134   4.22605
 Alpha virt. eigenvalues --    4.24892   4.27533   4.28552   4.30734   4.30957
 Alpha virt. eigenvalues --    4.33898   4.34781   4.35275   4.38284   4.39622
 Alpha virt. eigenvalues --    4.39950   4.40142   4.40764   4.43733   4.44222
 Alpha virt. eigenvalues --    4.44620   4.45593   4.49005   4.49873   4.50602
 Alpha virt. eigenvalues --    4.54760   4.55631   4.57012   4.59467   4.62649
 Alpha virt. eigenvalues --    4.62692   4.68419   4.69530   4.72457   4.73664
 Alpha virt. eigenvalues --    4.75374   4.77176   4.77561   4.77578   4.83311
 Alpha virt. eigenvalues --    4.85930   4.87574   4.89095   4.89232   4.91524
 Alpha virt. eigenvalues --    4.96007   4.96625   4.97702   5.01103   5.03079
 Alpha virt. eigenvalues --    5.04602   5.05470   5.06963   5.07398   5.08799
 Alpha virt. eigenvalues --    5.10599   5.14486   5.15933   5.19343   5.19833
 Alpha virt. eigenvalues --    5.25103   5.28326   5.29408   5.30668   5.36045
 Alpha virt. eigenvalues --    5.37205   5.38181   5.43399   5.44190   5.46964
 Alpha virt. eigenvalues --    5.47184   5.49707   5.50464   5.57930   5.60712
 Alpha virt. eigenvalues --    5.64665   5.67500   5.78324   5.78589   5.81271
 Alpha virt. eigenvalues --    5.81788   5.83851   5.84694   5.85601   5.91858
 Alpha virt. eigenvalues --    5.96827   6.02786   6.08525   6.16694   6.16965
 Alpha virt. eigenvalues --    6.31542   6.33973   6.53154   6.57009   6.61974
 Alpha virt. eigenvalues --    6.78041   6.98656   6.98731   7.01828   7.02078
 Alpha virt. eigenvalues --    7.04440   7.05407   7.11215   7.14956   7.22252
 Alpha virt. eigenvalues --    7.25981   7.29667   7.32329   7.37707   7.39783
 Alpha virt. eigenvalues --    8.48384   8.49620   8.56442   8.60358   8.64244
 Alpha virt. eigenvalues --    8.88359   8.95784   8.95825   8.99864   9.07004
 Alpha virt. eigenvalues --    9.33230   9.94855  10.34947  11.61161  11.68071
 Alpha virt. eigenvalues --   11.83207  12.02995  12.55247  12.69544  12.86847
 Alpha virt. eigenvalues --   12.89828  13.94735  14.07740  14.43565
          Condensed to atoms (all electrons):
               1          2          3          4          5          6
     1  C   -0.064301  -0.083495   0.061998   0.010741   0.015498  -0.000901
     2  C   -0.083495  -0.025658   0.011228  -0.001593   0.030183  -0.001154
     3  C    0.061998   0.011228  -0.011931  -0.001320  -0.108323   0.003269
     4  H    0.010741  -0.001593  -0.001320  -0.041258   0.002357   0.000357
     5  C    0.015498   0.030183  -0.108323   0.002357  -0.126954  -0.003372
     6  H   -0.000901  -0.001154   0.003269   0.000357  -0.003372  -0.052630
     7  N    0.001042  -0.050708   0.011675  -0.000597   0.064746   0.007810
     8  C    0.004952   0.108399  -0.002911   0.000090  -0.005761   0.000168
     9  H    0.000936  -0.012068  -0.000011   0.000004  -0.000046  -0.000006
    10  C   -0.000008  -0.000357   0.000000   0.000000   0.000003   0.000000
    11  H    0.000000   0.000000   0.000000   0.000000   0.000000   0.000000
    12  C   -0.000037   0.001068  -0.000003   0.000000   0.000000  -0.000001
    13  H    0.000001  -0.000018   0.000000   0.000000   0.000001   0.000000
    14  C    0.000000   0.000580   0.000008   0.000000   0.000037  -0.000001
    15  H   -0.000002  -0.000037   0.000000   0.000000   0.000000   0.000000
    16  C   -0.000580   0.000000   0.000357   0.000000  -0.001068   0.000018
    17  N    0.000097  -0.006202   0.000010   0.000001   0.000848   0.000088
    18  B    0.000873  -0.004384   0.000630  -0.000054   0.002870  -0.000159
    19  F    0.000000   0.000708   0.000002  -0.000001   0.001391   0.000182
    20  F    0.000000   0.000708   0.000002  -0.000001   0.001391   0.000182
    21  H   -0.001554   0.011539   0.004057   0.000820  -0.001223   0.000112
               7          8          9         10         11         12
     1  C    0.001042   0.004952   0.000936  -0.000008   0.000000  -0.000037
     2  C   -0.050708   0.108399  -0.012068  -0.000357   0.000000   0.001068
     3  C    0.011675  -0.002911  -0.000011   0.000000   0.000000  -0.000003
     4  H   -0.000597   0.000090   0.000004   0.000000   0.000000   0.000000
     5  C    0.064746  -0.005761  -0.000046   0.000003   0.000000   0.000000
     6  H    0.007810   0.000168  -0.000006   0.000000   0.000000  -0.000001
     7  N   -0.029151   0.010485  -0.000275  -0.000010  -0.000001  -0.000848
     8  C    0.010485   0.000000   0.000000   0.002911  -0.000090   0.005761
     9  H   -0.000275   0.000000   0.000000   0.000011  -0.000004   0.000046
    10  C   -0.000010   0.002911   0.000011   0.011931   0.001320   0.108323
    11  H   -0.000001  -0.000090  -0.000004   0.001320   0.041258  -0.002357
    12  C   -0.000848   0.005761   0.000046   0.108323  -0.002357   0.126954
    13  H   -0.000088  -0.000168   0.000006  -0.003269  -0.000357   0.003372
    14  C   -0.000097  -0.004952  -0.000936  -0.061998  -0.010741  -0.015498
    15  H   -0.000003   0.001091   0.000486  -0.004057  -0.000820   0.001223
    16  C    0.006202  -0.108399   0.012068  -0.011228   0.001593  -0.030183
    17  N    0.000000  -0.010485   0.000275  -0.011675   0.000597  -0.064746
    18  B   -0.051813   0.000000   0.000000  -0.000630   0.000054  -0.002870
    19  F    0.000161   0.000000   0.000000  -0.000002   0.000001  -0.001391
    20  F    0.000161   0.000000   0.000000  -0.000002   0.000001  -0.001391
    21  H   -0.000529  -0.001091  -0.000486   0.000000   0.000000   0.000000
              13         14         15         16         17         18
     1  C    0.000001   0.000000  -0.000002  -0.000580   0.000097   0.000873
     2  C   -0.000018   0.000580  -0.000037   0.000000  -0.006202  -0.004384
     3  C    0.000000   0.000008   0.000000   0.000357   0.000010   0.000630
     4  H    0.000000   0.000000   0.000000   0.000000   0.000001  -0.000054
     5  C    0.000001   0.000037   0.000000  -0.001068   0.000848   0.002870
     6  H    0.000000  -0.000001   0.000000   0.000018   0.000088  -0.000159
     7  N   -0.000088  -0.000097  -0.000003   0.006202   0.000000  -0.051813
     8  C   -0.000168  -0.004952   0.001091  -0.108399  -0.010485   0.000000
     9  H    0.000006  -0.000936   0.000486   0.012068   0.000275   0.000000
    10  C   -0.003269  -0.061998  -0.004057  -0.011228  -0.011675  -0.000630
    11  H   -0.000357  -0.010741  -0.000820   0.001593   0.000597   0.000054
    12  C    0.003372  -0.015498   0.001223  -0.030183  -0.064746  -0.002870
    13  H    0.052630   0.000901  -0.000112   0.001154  -0.007810   0.000159
    14  C    0.000901   0.064301   0.001554   0.083495  -0.001042  -0.000873
    15  H   -0.000112   0.001554   0.043063  -0.011539   0.000529   0.000000
    16  C    0.001154   0.083495  -0.011539   0.025658   0.050708   0.004384
    17  N   -0.007810  -0.001042   0.000529   0.050708   0.029151   0.051813
    18  B    0.000159  -0.000873   0.000000   0.004384   0.051813   0.000000
    19  F   -0.000182   0.000000   0.000001  -0.000708  -0.000161   0.000000
    20  F   -0.000182   0.000000   0.000001  -0.000708  -0.000161   0.000000
    21  H    0.000000   0.000002   0.000000   0.000037   0.000003   0.000000
              19         20         21
     1  C    0.000000   0.000000  -0.001554
     2  C    0.000708   0.000708   0.011539
     3  C    0.000002   0.000002   0.004057
     4  H   -0.000001  -0.000001   0.000820
     5  C    0.001391   0.001391  -0.001223
     6  H    0.000182   0.000182   0.000112
     7  N    0.000161   0.000161  -0.000529
     8  C    0.000000   0.000000  -0.001091
     9  H    0.000000   0.000000  -0.000486
    10  C   -0.000002  -0.000002   0.000000
    11  H    0.000001   0.000001   0.000000
    12  C   -0.001391  -0.001391   0.000000
    13  H   -0.000182  -0.000182   0.000000
    14  C    0.000000   0.000000   0.000002
    15  H    0.000001   0.000001   0.000000
    16  C   -0.000708  -0.000708   0.000037
    17  N   -0.000161  -0.000161   0.000003
    18  B    0.000000   0.000000   0.000000
    19  F    0.000000   0.000000  -0.000001
    20  F    0.000000   0.000000  -0.000001
    21  H   -0.000001  -0.000001  -0.043063
 Mulliken charges:
               1
     1  C    6.054741
     2  C    6.021260
     3  C    6.031263
     4  H    1.030453
     5  C    6.127419
     6  H    1.046038
     7  N    7.031841
     8  C    6.000000
     9  H    1.000000
    10  C    5.968737
    11  H    0.969547
    12  C    5.872581
    13  H    0.953962
    14  C    5.945259
    15  H    0.968623
    16  C    5.978740
    17  N    6.968159
    18  B    5.000000
    19  F    9.000000
    20  F    9.000000
    21  H    1.031377
 Sum of Mulliken charges =  98.00000
 Mulliken charges with hydrogens summed into heavy atoms:
               1
     1  C    7.086118
     2  C    6.021260
     3  C    7.061716
     5  C    7.173457
     7  N    7.031841
     8  C    7.000000
    10  C    6.938284
    12  C    6.826543
    14  C    6.913882
    16  C    5.978740
    17  N    6.968159
    18  B    5.000000
    19  F    9.000000
    20  F    9.000000
 Electronic spatial extent (au):  <R**2>=              0.0000
 Charge=              0.0000 electrons
 Dipole moment (field-independent basis, Debye):
    X=              9.1949    Y=              0.0000    Z=              0.0000  Tot=              9.1949
 Quadrupole moment (field-independent basis, Debye-Ang):
   XX=              0.0000   YY=              0.0000   ZZ=              0.0000
   XY=              0.0000   XZ=              0.4939   YZ=              0.0000
 Traceless Quadrupole moment (field-independent basis, Debye-Ang):
   XX=              0.0000   YY=              0.0000   ZZ=              0.0000
   XY=              0.0000   XZ=              0.4939   YZ=              0.0000
 Octapole moment (field-independent basis, Debye-Ang**2):
  XXX=             96.0495  YYY=              0.0000  ZZZ=              0.0000  XYY=              9.1989
  XXY=              0.0000  XXZ=              0.0000  XZZ=             16.6587  YZZ=              0.0000
  YYZ=              0.0000  XYZ=              0.0000
 Hexadecapole moment (field-independent basis, Debye-Ang**3):
 XXXX=              0.0000 YYYY=              0.0000 ZZZZ=              0.0000 XXXY=              0.0000
 XXXZ=              5.4915 YYYX=              0.0000 YYYZ=              0.0000 ZZZX=             18.2236
 ZZZY=              0.0000 XXYY=              0.0000 XXZZ=              0.0000 YYZZ=              0.0000
 XXYZ=              0.0000 YYXZ=              0.3422 ZZXY=              0.0000
 N-N= 8.596891634832D+02 E-N=-6.963573759065D-11  KE=-3.656086770612D-12
 Leave Link  601 at Wed Mar  2 16:57:30 2016, MaxMem=  2621440000 cpu:         1.0
 (Enter /cm/shared/apps/gaussian/g09D01/g09/l9999.exe)

 Test job not archived.
 1\1\GINC-NODE14\SP\RCAM-B3LYP TD-FC\CC-pVTZ\C9H7B1F2N2\DPADULA\02-Mar-
 2016\0\\#p td=(nstates=1) cam-b3lyp/cc-pvtz nosymm density=transition=
 1 iop(9/40=5)\\bodipy_monomer_camccpvtz\\0,1\C,0,2.54995478,0.,1.58639
 213\C,0,1.21407937,0.,1.10985364\C,0,3.37799026,0.,0.47440114\H,0,4.45
 642274,0.,0.45625796\C,0,2.53701706,0.,-0.65836963\H,0,2.80626133,0.,-
 1.70417753\N,0,1.25176205,0.,-0.28282472\C,0,0.,0.,1.78506054\H,0,0.,0
 .,2.86881774\C,0,-3.37799026,0.,0.47440114\H,0,-4.45642274,0.,0.456257
 96\C,0,-2.53701706,0.,-0.65836963\H,0,-2.80626133,0.,-1.70417753\C,0,-
 2.54995478,0.,1.58639213\H,0,-2.84248619,0.,2.62506781\C,0,-1.21407937
 ,0.,1.10985364\N,0,-1.25176205,0.,-0.28282472\B,0,0.,0.,-1.22898084\F,
 0,0.,1.14644784,-2.01919223\F,0,0.,-1.14644784,-2.01919223\H,0,2.84248
 619,0.,2.62506781\\Version=ES64L-G09RevD.01\HF=-681.3191046\RMSD=4.389
 e-09\PG=C02V [C2(B1C1H1),SGV(C8H6N2),SGV'(F2)]\\@


 DESK:  A WASTEBASKET WITH DRAWERS.
 Job cpu time:       0 days  2 hours 48 minutes 15.2 seconds.
 File lengths (MBytes):  RWF=    223 Int=      0 D2E=      0 Chk=     23 Scr=      1
 Normal termination of Gaussian 09 at Wed Mar  2 16:57:30 2016.
